   License is going to expire in 44 days  on Wednesday May 9th, 2018
   This copy of MOLCAS is licensed to Kristine Pierloot
                                                                       
                             ^^^                                       
                             ^^^          ++++  +++++  ++++++ +   ++   
                 ^^^        ^^^^^        ++  ++ ++  ++ ++     ++  ++   
                ^^^^^       ^^ ^^        ++  ++ ++  ++ ++     +++ ++   
                ^^ ^^      ^^   ^^       ++  ++ +++++  ++++   ++++++   
                ^^  ^^     ^^   ^^       ++  ++ ++     ++     ++ +++   
               ^^   ^  ^^^^  ^  ^^       ++  ++ ++     ++     ++  ++   
               ^^  ^   ^^^   ^^ ^^        ++++  ++     ++++++ ++   +   
               ^  ^^^   ^^  ^^^  ^^                                    
            ^^^   ^^^   ^   ^^^    ^^                                  
        ^^^^^^^  ^^^^^     ^^^^^   ^^^^^^                              
     ^^^^^^^^^   ^^^^^^^^^^^^^^^   ^^^^^^^^^                           
    ^^^^^^^^^^   ^^           ^^   ^^^    ^^^                          
    ^^^^^^^^^^       ^^**^^^        ^     ^^^                          
    ^^^^^^^^^^    ^^^^**^^^^^^^     ^  ^  ^^^                          
    ^^^^^^^^^^   **^^***********    ^  ^  ^^^                          
    ^^^^^^^^^   ^^***********^^^^   ^  ^  ^^^    ^^^^    ^^    ^^^^    
    ^^^^^^^^^   ^^^***********^^^   ^  ^  ^^^   ^^  ^^  ^^^^  ^^   ^   
    ^^^^^^^^^   ^^^^***********^^      ^  ^^^   ^      ^^  ^^ ^^       
    ^^^^^^^^     ***********^^**       ^  ^^^   ^      ^^  ^^  ^^^^    
    ^^^^^^        ^^^^^^^**^^^^        ^  ^^^   ^      ^^^^^^     ^^   
    ^^^     ^^^      ^^^**^^     ^     ^   ^^   ^^  ^^ ^^  ^^ ^   ^^   
          ^^^^^^^^^            ^^^^   ^^^        ^^^^  ^    ^  ^^^^    
     ^^^^^^^^^^^^^^^^^^^^^^^^^^^^^^^^^^^^^^^                           
        ^^^^^^^^^^^^^^^^^^^^^^^^^^^^^^^^^                              
            ^^^^^^^^^^^^^^^^^^^^^^^^^                                  
               ^^^^^^^^^^^^^^^^^^^        version 18.0                  
                   ^^^^^^^^^^^                                         
                       ^^^                tag o180313-0800                      
                                              $Px$                     
                                                                       
 OpenMolcas is free software; you can redistribute it and/or modify it 
 under the terms of the GNU Lesser General Public License version 2.1. 
 OpenMolcas is distributed in the hope that it will be useful, but it  
 is provided "as is" and without any express or implied warranties.    
 For more details see the full text of the license in the file         
 LICENSE or in <http://www.gnu.org/licenses/>.                         
                                                                       
                 Copyright (C) The OpenMolcas Authors                  
           For the author list and the recommended citation,           
                   consult the file CONTRIBUTORS.md                    

configuration info
------------------
C Compiler ID: Intel
C flags: -std=gnu99
Fortran Compiler ID: Intel
Fortran flags: -fpp -i8 -r8 -heap-arrays
Definitions: _MOLCAS_;_HAVE_EXTRA_;_I8_;_LINUX_;_MOLCAS_MPP_;SCALAPACK;_MKL_
Parallel: ON (GA=OFF)


   -------------------------------------------------------------------
  |                                                                   
  |   Project         = polyene
  |   Submitted from  = /home/tccm1/polyene/c8
  |   Scratch area    = /temp0/tccm1/polyene.work
  |   Save outputs to = WORKDIR
  |   Molcas          = /home/tccm1/source/molcas-extra/build
  |                                                                   
  |   Scratch area is empty
  |                                                                   
  |       MOLCAS_TRAP = ON                  
  |      MOLCAS_PRINT = 2                   
  |     MOLCAS_NPROCS = 1                   
  |     MOLCAS_SOURCE = /home/tccm1/source/molcas-extra/build
  |                                                                   
   -------------------------------------------------------------------
--- Start Module: auto at Mon Mar 26 16:51:43 2018 

++ ---------   Input file   ---------

  &GATEWAY
    Coord
      18
    C        0.136008    4.312351    0.000000
    H       -0.938345    4.482411    0.000000
    H        0.769568    5.193819    0.000000
    C        0.651136    3.070910    0.000000
    H        1.734563    2.945758    0.000000
    C       -0.136008    1.855847    0.000000
    H       -1.220647    1.972748    0.000000
    C        0.389389    0.606116    0.000000
    H        1.474708    0.493882    0.000000
    C       -0.389389   -0.606116    0.000000
    H       -1.474708   -0.493882    0.000000
    C        0.136008   -1.855847    0.000000
    H        1.220647   -1.972748    0.000000
    C       -0.651136   -3.070910    0.000000
    H       -1.734563   -2.945758    0.000000
    C       -0.136008   -4.312351    0.000000
    H        0.938345   -4.482411    0.000000
    H       -0.769568   -5.193819    0.000000
    Basis 
    ANO-RCC-MB
    GROUP 
    NOSYM
  &SEWARD
    Medium
  &SCF
  &RASSCF
    Spin 
      1
    Symmetry 
      1
    nActEl 
      8 0 0
    Inactive 
      25
    Ras2     
      8
    Iter 
      100 100
    LumOrb
  &CASPT2 
  &RASSCF
    Spin 
      1
    Symmetry 
      1
    nActEl 
      8 0 0
    Inactive 
      25
    Ras2     
      8
    Iter 
      100 100
    LumOrb
    DMRG 
      1000
      3RDM
  &CASPT2 
    CHEMPS2

-- ----------------------------------

--- Start Module: gateway at Mon Mar 26 16:51:43 2018 
 
()()()()()()()()()()()()()()()()()()()()()()()()()()()()()()()()()()()()()()()()()()()()()()()()()()

                                              &GATEWAY

                       only a single process is used, running in SERIAL mode
                       available to each process: 5.0 GB of memory, 1 thread
()()()()()()()()()()()()()()()()()()()()()()()()()()()()()()()()()()()()()()()()()()()()()()()()()()
 
 
++    Symmetry information:
      ---------------------
 
                    Character Table for C1 
 
                             E  
                    a        1  x, y, xy, Rz, z, xz, Ry, yz, Rx, I
--
 
 
++    Basis set information:
      ----------------------
 
 
      Basis set label: C.ANO-RCC...2S1P.
 
      Electronic valence basis set:
      ------------------
      Associated Effective Charge  6.000000 au
      Associated Actual Charge     6.000000 au
      Nuclear Model: Point charge
 
      Shell  nPrim  nBasis  Cartesian Spherical Contaminant
         s      14       2        X                  
         p       9       1        X                  
 
 
      Basis set label: H.ANO-RCC...1S.
 
      Electronic valence basis set:
      ------------------
      Associated Effective Charge  1.000000 au
      Associated Actual Charge     1.000000 au
      Nuclear Model: Point charge
 
      Shell  nPrim  nBasis  Cartesian Spherical Contaminant
         s       8       1        X                  
 
 
      Basis set label: C.ANO-RCC...2S1P.
 
      Electronic valence basis set:
      ------------------
      Associated Effective Charge  6.000000 au
      Associated Actual Charge     6.000000 au
      Nuclear Model: Point charge
 
      Shell  nPrim  nBasis  Cartesian Spherical Contaminant
         s      14       2        X                  
         p       9       1        X                  
 
 
      Basis set label: H.ANO-RCC...1S.
 
      Electronic valence basis set:
      ------------------
      Associated Effective Charge  1.000000 au
      Associated Actual Charge     1.000000 au
      Nuclear Model: Point charge
 
      Shell  nPrim  nBasis  Cartesian Spherical Contaminant
         s       8       1        X                  
 
 
      Basis set label: C.ANO-RCC...2S1P.
 
      Electronic valence basis set:
      ------------------
      Associated Effective Charge  6.000000 au
      Associated Actual Charge     6.000000 au
      Nuclear Model: Point charge
 
      Shell  nPrim  nBasis  Cartesian Spherical Contaminant
         s      14       2        X                  
         p       9       1        X                  
 
 
      Basis set label: H.ANO-RCC...1S.
 
      Electronic valence basis set:
      ------------------
      Associated Effective Charge  1.000000 au
      Associated Actual Charge     1.000000 au
      Nuclear Model: Point charge
 
      Shell  nPrim  nBasis  Cartesian Spherical Contaminant
         s       8       1        X                  
 
 
      Basis set label: C.ANO-RCC...2S1P.
 
      Electronic valence basis set:
      ------------------
      Associated Effective Charge  6.000000 au
      Associated Actual Charge     6.000000 au
      Nuclear Model: Point charge
 
      Shell  nPrim  nBasis  Cartesian Spherical Contaminant
         s      14       2        X                  
         p       9       1        X                  
 
 
      Basis set label: H.ANO-RCC...1S.
 
      Electronic valence basis set:
      ------------------
      Associated Effective Charge  1.000000 au
      Associated Actual Charge     1.000000 au
      Nuclear Model: Point charge
 
      Shell  nPrim  nBasis  Cartesian Spherical Contaminant
         s       8       1        X                  
 
 
      Basis set label: C.ANO-RCC...2S1P.
 
      Electronic valence basis set:
      ------------------
      Associated Effective Charge  6.000000 au
      Associated Actual Charge     6.000000 au
      Nuclear Model: Point charge
 
      Shell  nPrim  nBasis  Cartesian Spherical Contaminant
         s      14       2        X                  
         p       9       1        X                  
 
 
      Basis set label: H.ANO-RCC...1S.
 
      Electronic valence basis set:
      ------------------
      Associated Effective Charge  1.000000 au
      Associated Actual Charge     1.000000 au
      Nuclear Model: Point charge
 
      Shell  nPrim  nBasis  Cartesian Spherical Contaminant
         s       8       1        X                  
 
 
      Basis set label: C.ANO-RCC...2S1P.
 
      Electronic valence basis set:
      ------------------
      Associated Effective Charge  6.000000 au
      Associated Actual Charge     6.000000 au
      Nuclear Model: Point charge
 
      Shell  nPrim  nBasis  Cartesian Spherical Contaminant
         s      14       2        X                  
         p       9       1        X                  
 
 
      Basis set label: H.ANO-RCC...1S.
 
      Electronic valence basis set:
      ------------------
      Associated Effective Charge  1.000000 au
      Associated Actual Charge     1.000000 au
      Nuclear Model: Point charge
 
      Shell  nPrim  nBasis  Cartesian Spherical Contaminant
         s       8       1        X                  
 
 
      Basis set label: C.ANO-RCC...2S1P.
 
      Electronic valence basis set:
      ------------------
      Associated Effective Charge  6.000000 au
      Associated Actual Charge     6.000000 au
      Nuclear Model: Point charge
 
      Shell  nPrim  nBasis  Cartesian Spherical Contaminant
         s      14       2        X                  
         p       9       1        X                  
 
 
      Basis set label: H.ANO-RCC...1S.
 
      Electronic valence basis set:
      ------------------
      Associated Effective Charge  1.000000 au
      Associated Actual Charge     1.000000 au
      Nuclear Model: Point charge
 
      Shell  nPrim  nBasis  Cartesian Spherical Contaminant
         s       8       1        X                  
 
 
      Basis set label: C.ANO-RCC...2S1P.
 
      Electronic valence basis set:
      ------------------
      Associated Effective Charge  6.000000 au
      Associated Actual Charge     6.000000 au
      Nuclear Model: Point charge
 
      Shell  nPrim  nBasis  Cartesian Spherical Contaminant
         s      14       2        X                  
         p       9       1        X                  
 
 
      Basis set label: H.ANO-RCC...1S.
 
      Electronic valence basis set:
      ------------------
      Associated Effective Charge  1.000000 au
      Associated Actual Charge     1.000000 au
      Nuclear Model: Point charge
 
      Shell  nPrim  nBasis  Cartesian Spherical Contaminant
         s       8       1        X                  
--
 
 
++    Molecular structure info:
      -------------------------
 
                    ************************************************ 
                    **** Cartesian Coordinates / Bohr, Angstrom **** 
                    ************************************************ 
 
     Center  Label                x              y              z                     x              y              z
        1      C1               0.257018       8.149162       0.000000              0.136008       4.312351       0.000000
        2      H2              -1.773215       8.470529       0.000000             -0.938345       4.482411       0.000000
        3      H3               1.454273       9.814895       0.000000              0.769568       5.193819       0.000000
        4      C4               1.230469       5.803179       0.000000              0.651136       3.070910       0.000000
        5      H5               3.277849       5.566676       0.000000              1.734563       2.945758       0.000000
        6      C6              -0.257018       3.507043       0.000000             -0.136008       1.855847       0.000000
        7      H7              -2.306689       3.727953       0.000000             -1.220647       1.972748       0.000000
        8      C8               0.735839       1.145393       0.000000              0.389389       0.606116       0.000000
        9      H9               2.786794       0.933302       0.000000              1.474708       0.493882       0.000000
       10      C10             -0.735839      -1.145393       0.000000             -0.389389      -0.606116       0.000000
       11      H11             -2.786794      -0.933302       0.000000             -1.474708      -0.493882       0.000000
       12      C12              0.257018      -3.507043       0.000000              0.136008      -1.855847       0.000000
       13      H13              2.306689      -3.727953       0.000000              1.220647      -1.972748       0.000000
       14      C14             -1.230469      -5.803179       0.000000             -0.651136      -3.070910       0.000000
       15      H15             -3.277849      -5.566676       0.000000             -1.734563      -2.945758       0.000000
       16      C16             -0.257018      -8.149162       0.000000             -0.136008      -4.312351       0.000000
       17      H17              1.773215      -8.470529       0.000000              0.938345      -4.482411       0.000000
       18      H18             -1.454273      -9.814895       0.000000             -0.769568      -5.193819       0.000000
 
                    ************************************************* 
                    **** InterNuclear Distances / Bohr, Angstrom **** 
                    ************************************************* 
 
     Atom centers         Bohr        Angstrom
    3 H3        1 C1      2.051362        1.085534
   18 H18      16 C16   
    2 H2        1 C1      2.055510        1.087729
   17 H17      16 C16   
    5 H5        4 C4      2.060995        1.090632
   15 H15      14 C14   
    7 H7        6 C6      2.061541        1.090921
   13 H13      12 C12   
    9 H9        8 C8      2.061893        1.091107
   11 H11      10 C10   
    4 C4        1 C1      2.539930        1.344073
   16 C16      14 C14   
    8 C8        6 C6      2.561865        1.355680
   12 C12      10 C10   
   10 C10       8 C8      2.722781        1.440834
    6 C6        4 C4      2.735847        1.447748
   14 C14      12 C12   
    3 H3        2 H2      3.496283        1.850154
   18 H18      17 H17   
    5 H5        1 C1      3.974249        2.103082
   16 C16      15 H15   
    9 H9        6 C6      3.986093        2.109349
   12 C12      11 H11   
    8 C8        7 H7      3.990813        2.111847
   13 H13      10 C10   
    4 C4        2 H2      4.017073        2.125743
   17 H17      14 C14   
    4 C4        3 H3      4.017954        2.126210
   18 H18      14 C14   
   10 C10       9 H9      4.090222        2.164452
   11 H11       8 C8    
    6 C6        5 H5      4.091133        2.164935
   15 H15      12 C12   
    7 H7        4 C4      4.100981        2.170145
   14 C14      13 H13   
    5 H5        3 H3      4.623073        2.446425
   18 H18      15 H15   
    9 H9        5 H5      4.659323        2.465608
   15 H15      11 H11   
    6 C6        1 C1      4.670493        2.471519
   16 C16      12 C12   
   10 C10       6 C6      4.677011        2.474967
   12 C12       8 C8    
    8 C8        4 C4      4.683975        2.478653
   14 C14      10 C10   
   11 H11       7 H7      4.685915        2.479680
   13 H13       9 H9    
    7 H7        2 H2      4.772486        2.525491
   17 H17      13 H13   
    8 C8        5 H5      5.099957        2.698781
   15 H15      10 C10   
   11 H11       6 C6      5.110423        2.704320
   12 C12       9 H9    
    7 H7        1 C1      5.110742        2.704488
   16 C16      13 H13   
    9 H9        4 C4      5.112519        2.705429
   14 C14      11 H11   
   10 C10       7 H7      5.120261        2.709526
   13 H13       8 C8    
    6 C6        2 H2      5.189899        2.746376
   17 H17      12 C12   
--
 
 
            Nuclear Potential Energy            297.20317252 au
 
--- Stop Module:  gateway at Mon Mar 26 16:51:45 2018 /rc=0 ---
--- Start Module: seward at Mon Mar 26 16:51:45 2018 
 
()()()()()()()()()()()()()()()()()()()()()()()()()()()()()()()()()()()()()()()()()()()()()()()()()()

                                              &SEWARD

                       only a single process is used, running in SERIAL mode
                       available to each process: 5.0 GB of memory, 1 thread
()()()()()()()()()()()()()()()()()()()()()()()()()()()()()()()()()()()()()()()()()()()()()()()()()()
 
               SEWARD will generate:
                  Multipole Moment integrals up to order  2
                  Kinetic Energy integrals
                  Nuclear Attraction integrals (point charge)
                  One-Electron Hamiltonian integrals
                  Velocity integrals
                  Relativistic Douglas-Kroll-Hess integrals:
                    - Parametrization         : EXP
                    - DKH order of Hamiltonian: 2
                    - DKH order of Properties : 0
                         - multipole moment operators
                         - electric potential operators
                         - contact operators
                  Atomic mean-field integrals
                  Cholesky decomposed two-electron repulsion integrals
                   - CD Threshold:   0.10E-05
 
                   Integrals are discarded if absolute value <: 0.10E-39
                   Integral cutoff threshold is set to       <: 0.10E-39
 
            Nuclear Potential Energy            297.20317252 au
 
 
      Basis set specifications :
      Symmetry species         a  
      Basis functions           50
 
      Cholesky vectors         345
 
 
 
  Input file to MOLDEN was generated!
 
**************************************************
MEMORY WARNING: use of FLUSH operation deprecated!
please contact the developer of this module and
ask him/her to fix this!
**************************************************
**************************************************
MEMORY WARNING: use of FLUSH operation deprecated!
please contact the developer of this module and
ask him/her to fix this!
**************************************************
**************************************************
MEMORY WARNING: use of FLUSH operation deprecated!
please contact the developer of this module and
ask him/her to fix this!
**************************************************
**************************************************
MEMORY WARNING: use of FLUSH operation deprecated!
please contact the developer of this module and
ask him/her to fix this!
**************************************************
--- Stop Module:  seward at Mon Mar 26 16:52:09 2018 /rc=0 ---
--- Module seward spent 24 seconds 
*** 
--- Start Module: scf at Mon Mar 26 16:52:09 2018 
 
()()()()()()()()()()()()()()()()()()()()()()()()()()()()()()()()()()()()()()()()()()()()()()()()()()

                                                &SCF

                       only a single process is used, running in SERIAL mode
                       available to each process: 5.0 GB of memory, 1 thread
()()()()()()()()()()()()()()()()()()()()()()()()()()()()()()()()()()()()()()()()()()()()()()()()()()
 
++    Input section:
      --------------
 
      Header of the integral files:
      
       Integrals generated by seward 4.2.0  , Mon Mar 26 16:51:45 2018
 
 
      Cartesian coordinates in Angstrom:
      -----------------------------------------------------
      No.  Label        X            Y            Z        
      -----------------------------------------------------
       1   C1         0.13600800   4.31235100   0.00000000
       2   H2        -0.93834500   4.48241100   0.00000000
       3   H3         0.76956800   5.19381900   0.00000000
       4   C4         0.65113600   3.07091000   0.00000000
       5   H5         1.73456300   2.94575800   0.00000000
       6   C6        -0.13600800   1.85584700   0.00000000
       7   H7        -1.22064700   1.97274800   0.00000000
       8   C8         0.38938900   0.60611600   0.00000000
       9   H9         1.47470800   0.49388200   0.00000000
      10   C10       -0.38938900  -0.60611600   0.00000000
      11   H11       -1.47470800  -0.49388200   0.00000000
      12   C12        0.13600800  -1.85584700   0.00000000
      13   H13        1.22064700  -1.97274800   0.00000000
      14   C14       -0.65113600  -3.07091000   0.00000000
      15   H15       -1.73456300  -2.94575800   0.00000000
      16   C16       -0.13600800  -4.31235100   0.00000000
      17   H17        0.93834500  -4.48241100   0.00000000
      18   H18       -0.76956800  -5.19381900   0.00000000
      -----------------------------------------------------
      Nuclear repulsion energy =  297.20317252
--
 
++    Orbital specifications:
      -----------------------
 
      Symmetry species               1
                                     a
      Frozen orbitals                0
      Occupied orbitals             29
      Secondary orbitals            21
      Deleted orbitals               0
      Total number of orbitals      50
      Number of basis functions     50
--
 
      Molecular charge                           0.000
 
++    Optimization specifications:
      ----------------------------
 
      SCF Algorithm: LK-Cholesky
      The actual AO density is used
      Number of density matrices in core                5
      Maximum number of NDDO SCF iterations           400
      Maximum number of HF SCF iterations             400
      Threshold for SCF energy change            0.10E-08
      Threshold for density matrix               0.10E-03
      Threshold for Fock matrix                  0.15E-03
      Threshold for linear dependence            0.10E-08
      Threshold at which DIIS is turned on       0.15E+00
      Threshold at which QNR/C2DIIS is turned on 0.75E-01
      Threshold for Norm(delta) (QNR/C2DIIS)     0.20E-04
      DIIS extrapolation of the SCF procedure
      All orbitals punched on: SCFORB
--
 
      Input vectors read from INPORB
      Orbital file label: *Guess orbitals
 
 
++ Convergence information
                                   SCF        iterations: Energy and convergence statistics
 
Iter     Tot. SCF        One-elec.       Two-elec.     Energy      Max Dij or  Max Fij      DNorm      TNorm      AccCon     Time
         Energy          Energy          Energy        Change      Delta Norm                                                in Sec.
   1  -308.312494233  -996.021604875   390.505938123   0.00E+00    0.19E+00*   0.77E-01*    0.97E+01   0.10E+03   None         1.
   2  -308.422414071 -1000.007199317   394.381612727  -0.11E+00*   0.78E-01*   0.18E-01*    0.98E+01   0.10E+03   EDIIS        0.
   3  -308.426738422  -999.714132376   394.084221434  -0.43E-02*   0.40E-01*   0.97E-02*    0.98E+01   0.10E+03   EDIIS        0.
   4  -308.427483810  -999.844900992   394.214244663  -0.75E-03*   0.25E-01*   0.56E-02*    0.98E+01   0.10E+03   c2DIIS       0.
   5  -308.427561477  -999.757117969   394.126383973  -0.78E-04*   0.12E-01*   0.32E-02*    0.98E+01   0.10E+03   QNRc2DIIS    0.
   6  -308.427663101  -999.827201391   394.196365771  -0.10E-03*   0.39E-02*   0.16E-02*    0.98E+01   0.10E+03   QNRc2DIIS    0.
   7  -308.427702007  -999.803310182   394.172435656  -0.39E-04*   0.76E-03*   0.13E-03     0.98E+01   0.10E+03   QNRc2DIIS    0.
   8  -308.427702414  -999.803372138   394.172497205  -0.41E-06*   0.27E-04*   0.12E-04     0.98E+01   0.10E+03   QNRc2DIIS    1.
   9  -308.427702851  -999.803388941   394.172513571  -0.44E-06*   0.11E-04    0.23E-05     0.98E+01   0.10E+03   QNRc2DIIS    1.
  10  -308.427702836  -999.803407029   394.172531675   0.15E-07*   0.35E-05    0.87E-06     0.98E+01   0.10E+03   QNRc2DIIS    1.
  11  -308.427702850  -999.803410850   394.172535481  -0.14E-07*   0.14E-05    0.30E-06     0.98E+01   0.10E+03   QNRc2DIIS    1.
  12  -308.427702856  -999.803413748   394.172538373  -0.67E-08*   0.18E-06    0.31E-07     0.98E+01   0.10E+03   QNRc2DIIS    1.
  13  -308.427702887  -999.803414000   394.172538594  -0.30E-07*   0.42E-07    0.25E-07     0.98E+01   0.10E+03   QNRc2DIIS    1.
  14  -308.427702888  -999.803414036   394.172538628  -0.15E-08*   0.12E-07    0.31E-08     0.98E+01   0.10E+03   QNRc2DIIS    1.
  15  -308.427702895  -999.803414032   394.172538619  -0.63E-08*   0.55E-08    0.39E-08     0.98E+01   0.10E+03   QNRc2DIIS    1.
  16  -308.427702894  -999.803414043   394.172538630   0.23E-09    0.29E-08    0.71E-09     0.98E+01   0.10E+03   QNRc2DIIS    1.
 
       Convergence after 16 Macro Iterations
--
 
 *****************************************************************************************************************************
 *                                                                                                                           *
 *                                             SCF/KS-DFT Program, Final results                                             *
 *                                                                                                                           *
 *                                                                                                                           *
 *                                                                                                                           *
 *                                                       Final Results                                                       *
 *                                                                                                                           *
 *****************************************************************************************************************************
 
::    Total SCF energy                               -308.4277028943
      One-electron energy                            -999.8034140434
      Two-electron energy                             394.1725386299
      Nuclear repulsion energy                        297.2031725192
      Kinetic energy (interpolated)                   306.9838071584
      Virial theorem                                    1.0047034915
      Total spin, S(S+1)                                0.0000000000
      Total spin, S                                     0.0000000000
      Max non-diagonal density matrix element           0.0000000015
      Max non-diagonal Fock matrix element              0.0000000005
 
 
      All orbitals with orbital energies smaller than  E(LUMO)+0.5 are printed
 
++    Molecular orbitals:
      -------------------
 
      Title: SCF orbitals

      Molecular orbitals for symmetry species 1: a  
 
          Orbital        1         2         3         4         5         6         7         8         9        10    
          Energy      -11.3596  -11.3596  -11.3563  -11.3556  -11.3539  -11.3538  -11.3376  -11.3376   -1.1536   -1.1211
          Occ. No.      2.0000    2.0000    2.0000    2.0000    2.0000    2.0000    2.0000    2.0000    2.0000    2.0000
 
        1 C1    1s     -0.0317    0.0091   -0.0011    0.0014    0.0027   -0.0026    0.0535   -0.9982   -0.0128    0.0236
        2 C1    2s      0.0005   -0.0002   -0.0001    0.0001    0.0001   -0.0000    0.0000   -0.0005    0.1033   -0.1993
        3 C1    2px     0.0000   -0.0000   -0.0000   -0.0000   -0.0001    0.0000    0.0000   -0.0001    0.0132   -0.0241
        4 C1    2py    -0.0001    0.0000    0.0001   -0.0001   -0.0001    0.0001   -0.0000    0.0003   -0.0365    0.0651
        5 C1    2pz    -0.0000   -0.0000    0.0000    0.0000    0.0000   -0.0000    0.0000   -0.0000    0.0000    0.0000
        6 H2    1s      0.0003   -0.0001   -0.0000    0.0000    0.0001   -0.0001   -0.0000    0.0008    0.0135   -0.0299
        7 H3    1s      0.0004   -0.0001   -0.0000    0.0000    0.0000   -0.0000   -0.0000    0.0008    0.0139   -0.0299
        8 C4    1s     -0.9588    0.2740   -0.0197    0.0250    0.0444   -0.0416   -0.0018    0.0337   -0.0228    0.0351
        9 C4    2s     -0.0003    0.0001   -0.0003    0.0002    0.0004   -0.0004   -0.0000    0.0007    0.1863   -0.2940
       10 C4    2px     0.0002   -0.0001    0.0000    0.0000   -0.0000    0.0000    0.0000   -0.0000   -0.0348    0.0488
       11 C4    2py    -0.0002    0.0000    0.0003   -0.0002   -0.0001    0.0001   -0.0000    0.0001   -0.0143   -0.0066
       12 C4    2pz    -0.0000   -0.0000   -0.0000   -0.0000   -0.0000    0.0000   -0.0000   -0.0000    0.0000   -0.0000
       13 H5    1s      0.0007   -0.0002   -0.0002    0.0002    0.0001   -0.0001   -0.0000    0.0003    0.0243   -0.0445
       14 C6    1s     -0.0653    0.0186    0.2093   -0.2984   -0.6753    0.6377    0.0001   -0.0019   -0.0330    0.0308
       15 C6    2s      0.0005   -0.0002   -0.0004    0.0001   -0.0004    0.0004   -0.0000    0.0001    0.2638   -0.2571
       16 C6    2px     0.0000   -0.0000    0.0001   -0.0001   -0.0001    0.0002    0.0000   -0.0000    0.0436   -0.0453
       17 C6    2py     0.0002   -0.0001    0.0002    0.0002    0.0001   -0.0001   -0.0000    0.0003   -0.0353   -0.0149
       18 C6    2pz    -0.0000   -0.0000    0.0000    0.0000    0.0000    0.0000   -0.0000    0.0000   -0.0000    0.0000
       19 H7    1s      0.0003   -0.0001   -0.0005    0.0003    0.0004   -0.0004   -0.0000    0.0002    0.0353   -0.0391
       20 C8    1s     -0.0071    0.0024    0.6756   -0.6400    0.2110   -0.2995    0.0000   -0.0000   -0.0375    0.0145
       21 C8    2s      0.0002   -0.0001   -0.0003   -0.0005    0.0004   -0.0006   -0.0000    0.0001    0.3014   -0.1163
       22 C8    2px     0.0001    0.0000   -0.0001    0.0002   -0.0000    0.0001    0.0000   -0.0000   -0.0522    0.0115
       23 C8    2py     0.0003   -0.0000    0.0003    0.0002   -0.0001   -0.0002   -0.0000    0.0001    0.0122   -0.0730
       24 C8    2pz     0.0000    0.0000    0.0000    0.0000   -0.0000    0.0000   -0.0000    0.0000    0.0000    0.0000
       25 H9    1s      0.0002   -0.0001   -0.0008    0.0003    0.0001    0.0000   -0.0000    0.0000    0.0403   -0.0185
       26 C10   1s      0.0017    0.0073    0.6745    0.6411    0.2097    0.3006    0.0000   -0.0000   -0.0375   -0.0145
       27 C10   2s      0.0000   -0.0002   -0.0003    0.0005    0.0004    0.0006   -0.0001   -0.0000    0.3014    0.1163
       28 C10   2px     0.0000    0.0000    0.0001    0.0002    0.0000    0.0001   -0.0000    0.0000    0.0522    0.0115
       29 C10   2py     0.0001    0.0002   -0.0003    0.0002    0.0001   -0.0002    0.0001    0.0000   -0.0122   -0.0730
       30 C10   2pz     0.0000    0.0000    0.0000   -0.0000   -0.0000   -0.0000   -0.0000   -0.0000   -0.0000    0.0000
       31 H11   1s     -0.0000   -0.0002   -0.0008   -0.0003    0.0001   -0.0000   -0.0000    0.0000    0.0403    0.0185
       32 C12   1s      0.0188    0.0653    0.2089    0.2988   -0.6724   -0.6408    0.0019    0.0001   -0.0330   -0.0308
       33 C12   2s     -0.0001   -0.0005   -0.0004   -0.0001   -0.0004   -0.0004   -0.0001   -0.0000    0.2638    0.2571
       34 C12   2px    -0.0000    0.0000   -0.0001   -0.0001    0.0001    0.0002   -0.0000   -0.0000   -0.0436   -0.0453
       35 C12   2py     0.0001    0.0002   -0.0002    0.0002   -0.0001   -0.0001    0.0003    0.0000    0.0353   -0.0149
       36 C12   2pz     0.0000   -0.0000   -0.0000   -0.0000    0.0000    0.0000    0.0000   -0.0000   -0.0000   -0.0000
       37 H13   1s     -0.0001   -0.0003   -0.0005   -0.0003    0.0004    0.0004   -0.0002   -0.0000    0.0353    0.0391
       38 C14   1s      0.2740    0.9588   -0.0196   -0.0250    0.0442    0.0418   -0.0337   -0.0018   -0.0228   -0.0351
       39 C14   2s      0.0001    0.0003   -0.0003   -0.0002    0.0004    0.0004   -0.0007   -0.0000    0.1863    0.2940
       40 C14   2px     0.0001    0.0002   -0.0000    0.0000    0.0000    0.0001   -0.0000   -0.0000    0.0348    0.0488
       41 C14   2py    -0.0000   -0.0002   -0.0003   -0.0002    0.0001    0.0001    0.0001    0.0000    0.0143   -0.0066
       42 C14   2pz     0.0000   -0.0000   -0.0000   -0.0000    0.0000    0.0000   -0.0000   -0.0000   -0.0000   -0.0000
       43 H15   1s     -0.0002   -0.0007   -0.0002   -0.0002    0.0001    0.0001   -0.0003   -0.0000    0.0243    0.0445
       44 C16   1s      0.0091    0.0317   -0.0011   -0.0014    0.0027    0.0026    0.9982    0.0535   -0.0128   -0.0236
       45 C16   2s     -0.0002   -0.0005   -0.0001   -0.0001    0.0001    0.0000    0.0005    0.0000    0.1033    0.1993
       46 C16   2px     0.0000    0.0000    0.0000   -0.0000    0.0001    0.0000   -0.0001   -0.0000   -0.0132   -0.0241
       47 C16   2py    -0.0000   -0.0001   -0.0001   -0.0001    0.0001    0.0001    0.0003    0.0000    0.0365    0.0651
       48 C16   2pz    -0.0000   -0.0000   -0.0000    0.0000   -0.0000    0.0000    0.0000    0.0000   -0.0000   -0.0000
       49 H17   1s     -0.0001   -0.0003   -0.0000   -0.0000    0.0001    0.0001   -0.0008   -0.0000    0.0135    0.0299
       50 H18   1s     -0.0001   -0.0004   -0.0000   -0.0000    0.0000    0.0000   -0.0008   -0.0000    0.0139    0.0299
 
          Orbital       11        12        13        14        15        16        17        18        19        20    
          Energy       -1.0714   -1.0110   -0.8976   -0.8197   -0.7908   -0.7790   -0.6995   -0.6936   -0.6553   -0.6345
          Occ. No.      2.0000    2.0000    2.0000    2.0000    2.0000    2.0000    2.0000    2.0000    2.0000    2.0000
 
        1 C1    1s     -0.0299    0.0274   -0.0213    0.0153    0.0024   -0.0068    0.0001    0.0026    0.0008   -0.0089
        2 C1    2s      0.2707   -0.2734    0.2759   -0.2752   -0.0392    0.1523   -0.0125    0.1036    0.0133   -0.0383
        3 C1    2px     0.0292   -0.0241    0.0052    0.0434    0.0602   -0.1136    0.1950   -0.0158   -0.2571    0.1176
        4 C1    2py    -0.0739    0.0503    0.0264   -0.1209   -0.0160    0.0978    0.0400    0.2482   -0.0840   -0.3457
        5 C1    2pz    -0.0000   -0.0000    0.0000    0.0000    0.0000   -0.0000   -0.0000   -0.0000    0.0000    0.0000
        6 H2    1s      0.0488   -0.0601    0.0877   -0.1281   -0.0454    0.1234   -0.1191    0.0748    0.1658   -0.1318
        7 H3    1s      0.0484   -0.0610    0.0971   -0.1338   -0.0046    0.0663    0.0824    0.1603   -0.1407   -0.1598
        8 C4    1s     -0.0311    0.0145    0.0079   -0.0169   -0.0057    0.0129    0.0014    0.0076   -0.0036   -0.0067
        9 C4    2s      0.2720   -0.1317   -0.1040    0.2533    0.1004   -0.2327    0.0522   -0.0886    0.0095    0.0042
       10 C4    2px    -0.0336    0.0040    0.0167    0.0325    0.1217   -0.1695    0.2331    0.1177   -0.1857   -0.1278
       11 C4    2py     0.0731   -0.1381    0.1924   -0.1296    0.0102   -0.0085    0.1073   -0.1294   -0.1129    0.3412
       12 C4    2pz     0.0000   -0.0000   -0.0000    0.0000   -0.0000   -0.0000    0.0000   -0.0000    0.0000   -0.0000
       13 H5    1s      0.0498   -0.0289   -0.0354    0.1153    0.0966   -0.1755    0.1505    0.0377   -0.1032   -0.1068
       14 C6    1s      0.0026   -0.0275    0.0218    0.0003    0.0095   -0.0118   -0.0009   -0.0074    0.0006    0.0036
       15 C6    2s     -0.0179    0.2561   -0.2580    0.0172   -0.1738    0.2118   -0.0292    0.0429   -0.1017   -0.0422
       16 C6    2px     0.0084    0.0219   -0.0207    0.0217    0.1754   -0.1482   -0.0083    0.1972    0.1844   -0.1320
       17 C6    2py     0.1060   -0.0992   -0.1032    0.2202   -0.0432   -0.0254   -0.2198   -0.1360    0.1566   -0.1282
       18 C6    2pz     0.0000   -0.0000    0.0000    0.0000    0.0000   -0.0000   -0.0000   -0.0000    0.0000    0.0000
       19 H7    1s     -0.0041    0.0580   -0.0812    0.0066   -0.1542    0.1568   -0.0212   -0.1052   -0.1528    0.0570
       20 C8    1s      0.0271   -0.0227   -0.0164    0.0158   -0.0119    0.0045   -0.0044    0.0005    0.0023   -0.0027
       21 C8    2s     -0.2400    0.2099    0.1999   -0.2143    0.2098   -0.0947   -0.0310   -0.0218    0.0739    0.1251
       22 C8    2px     0.0391   -0.0133   -0.0225   -0.0250    0.2074   -0.0584   -0.2138    0.1163    0.1737    0.0404
       23 C8    2py     0.0334    0.1288   -0.1681   -0.0987   -0.0119    0.1040    0.1263    0.3022   -0.0640    0.0171
       24 C8    2pz    -0.0000   -0.0000    0.0000   -0.0000    0.0000   -0.0000   -0.0000   -0.0000    0.0000    0.0000
       25 H9    1s     -0.0444    0.0477    0.0633   -0.0877    0.1829   -0.0716   -0.1459    0.0413    0.1479    0.0853
       26 C10   1s      0.0271    0.0227   -0.0164   -0.0158    0.0119    0.0045    0.0044    0.0005    0.0023    0.0027
       27 C10   2s     -0.2400   -0.2099    0.1999    0.2143   -0.2098   -0.0947    0.0310   -0.0218    0.0739   -0.1251
       28 C10   2px    -0.0391   -0.0133    0.0225   -0.0250    0.2074    0.0584   -0.2138   -0.1163   -0.1737    0.0404
       29 C10   2py    -0.0334    0.1288    0.1681   -0.0987   -0.0119   -0.1040    0.1263   -0.3022    0.0640    0.0171
       30 C10   2pz    -0.0000    0.0000    0.0000   -0.0000    0.0000    0.0000   -0.0000   -0.0000    0.0000    0.0000
       31 H11   1s     -0.0444   -0.0477    0.0633    0.0877   -0.1829   -0.0716    0.1459    0.0413    0.1479   -0.0853
       32 C12   1s      0.0026    0.0275    0.0218   -0.0003   -0.0095   -0.0118    0.0009   -0.0074    0.0006   -0.0036
       33 C12   2s     -0.0179   -0.2561   -0.2580   -0.0172    0.1738    0.2118    0.0292    0.0429   -0.1017    0.0422
       34 C12   2px    -0.0084    0.0219    0.0207    0.0217    0.1754    0.1482   -0.0083   -0.1972   -0.1844   -0.1320
       35 C12   2py    -0.1060   -0.0992    0.1032    0.2202   -0.0432    0.0254   -0.2198    0.1360   -0.1566   -0.1282
       36 C12   2pz     0.0000    0.0000   -0.0000   -0.0000   -0.0000    0.0000   -0.0000   -0.0000    0.0000    0.0000
       37 H13   1s     -0.0041   -0.0580   -0.0812   -0.0066    0.1542    0.1568    0.0212   -0.1052   -0.1529   -0.0570
       38 C14   1s     -0.0311   -0.0145    0.0079    0.0169    0.0057    0.0129   -0.0014    0.0076   -0.0036    0.0067
       39 C14   2s      0.2720    0.1317   -0.1040   -0.2533   -0.1004   -0.2327   -0.0522   -0.0886    0.0095   -0.0042
       40 C14   2px     0.0336    0.0040   -0.0167    0.0325    0.1217    0.1695    0.2331   -0.1177    0.1857   -0.1278
       41 C14   2py    -0.0731   -0.1381   -0.1924   -0.1296    0.0102    0.0085    0.1073    0.1294    0.1129    0.3412
       42 C14   2pz     0.0000    0.0000   -0.0000    0.0000    0.0000    0.0000   -0.0000   -0.0000    0.0000   -0.0000
       43 H15   1s      0.0498    0.0289   -0.0354   -0.1154   -0.0966   -0.1755   -0.1505    0.0377   -0.1032    0.1068
       44 C16   1s     -0.0299   -0.0274   -0.0213   -0.0153   -0.0024   -0.0068   -0.0001    0.0026    0.0008    0.0089
       45 C16   2s      0.2707    0.2734    0.2759    0.2752    0.0392    0.1523    0.0125    0.1036    0.0133    0.0383
       46 C16   2px    -0.0292   -0.0241   -0.0052    0.0434    0.0602    0.1136    0.1950    0.0158    0.2571    0.1176
       47 C16   2py     0.0739    0.0503   -0.0264   -0.1209   -0.0160   -0.0978    0.0400   -0.2482    0.0840   -0.3457
       48 C16   2pz     0.0000    0.0000    0.0000   -0.0000    0.0000    0.0000    0.0000    0.0000   -0.0000   -0.0000
       49 H17   1s      0.0488    0.0601    0.0877    0.1281    0.0454    0.1234    0.1191    0.0748    0.1658    0.1318
       50 H18   1s      0.0484    0.0610    0.0971    0.1338    0.0046    0.0663   -0.0824    0.1603   -0.1407    0.1598
 
          Orbital       21        22        23        24        25        26        27        28        29        30    
          Energy       -0.5977   -0.5922   -0.5613   -0.5393   -0.5355   -0.5289   -0.4907   -0.4182   -0.3245    0.0470
          Occ. No.      2.0000    2.0000    2.0000    2.0000    2.0000    2.0000    2.0000    2.0000    2.0000    0.0000
 
        1 C1    1s      0.0003    0.0078    0.0013   -0.0010   -0.0000   -0.0010   -0.0000    0.0000   -0.0000    0.0000
        2 C1    2s     -0.0208   -0.0257    0.0064    0.0293    0.0000   -0.0167   -0.0000    0.0000   -0.0000    0.0000
        3 C1    2px     0.2473   -0.1088   -0.2462    0.2476   -0.0000   -0.1682   -0.0000    0.0000   -0.0000    0.0000
        4 C1    2py     0.1664    0.2737   -0.0862    0.0304   -0.0000   -0.0657   -0.0000    0.0000   -0.0000    0.0000
        5 C1    2pz    -0.0000   -0.0000   -0.0000   -0.0000    0.1472    0.0000   -0.2908    0.3958   -0.3664    0.4329
        6 H2    1s     -0.1743    0.1018    0.1954   -0.2074    0.0000    0.1448    0.0000   -0.0000    0.0000   -0.0000
        7 H3    1s      0.2047    0.1023   -0.1785    0.1701   -0.0000   -0.1485   -0.0000    0.0000   -0.0000    0.0000
        8 C4    1s      0.0016    0.0049    0.0028   -0.0036    0.0000    0.0015   -0.0000    0.0000   -0.0000    0.0000
        9 C4    2s     -0.0497    0.0489    0.0481   -0.0014   -0.0000   -0.0409   -0.0000    0.0000   -0.0000    0.0000
       10 C4    2px     0.0313    0.1529    0.1456   -0.3029    0.0000    0.2417    0.0000    0.0000   -0.0000    0.0000
       11 C4    2py    -0.0179   -0.2919    0.0162   -0.0547    0.0000    0.1231    0.0000   -0.0000    0.0000   -0.0000
       12 C4    2pz    -0.0000    0.0000   -0.0000   -0.0000    0.2249   -0.0000   -0.3733    0.3704   -0.2067   -0.2220
       13 H5    1s      0.0004    0.1633    0.1368   -0.2668    0.0000    0.1945    0.0000    0.0000   -0.0000    0.0000
       14 C6    1s      0.0053    0.0042   -0.0028   -0.0035   -0.0000    0.0012    0.0000   -0.0000    0.0000   -0.0000
       15 C6    2s      0.0998   -0.0174   -0.0162    0.0510   -0.0000   -0.0467   -0.0000    0.0000   -0.0000    0.0000
       16 C6    2px    -0.2493   -0.0824    0.0833    0.2656   -0.0000   -0.2589   -0.0000    0.0000   -0.0000    0.0000
       17 C6    2py     0.1476    0.2528   -0.2087    0.0819   -0.0000   -0.1019    0.0000   -0.0000    0.0000   -0.0000
       18 C6    2pz    -0.0000    0.0000   -0.0000   -0.0000    0.3227   -0.0000   -0.2997   -0.0994    0.4253   -0.4831
       19 H7    1s      0.2426    0.0747   -0.1010   -0.2031    0.0000    0.2175    0.0000   -0.0000    0.0000   -0.0000
       20 C8    1s      0.0061    0.0010   -0.0066   -0.0010    0.0000    0.0012    0.0000   -0.0000    0.0000   -0.0000
       21 C8    2s      0.0026   -0.0151   -0.0009   -0.0297   -0.0000   -0.0554    0.0000   -0.0000    0.0000   -0.0000
       22 C8    2px     0.1832   -0.0700   -0.3263   -0.0709    0.0000    0.2637    0.0000   -0.0000    0.0000   -0.0000
       23 C8    2py    -0.1479   -0.3367    0.0621    0.0641    0.0000    0.1100   -0.0000    0.0000   -0.0000    0.0000
       24 C8    2pz    -0.0000    0.0000   -0.0000   -0.0000    0.3575   -0.0000   -0.1606   -0.3121    0.3610    0.3990
       25 H9    1s      0.1445   -0.0288   -0.2758   -0.0902    0.0000    0.2197    0.0000   -0.0000   -0.0000    0.0000
       26 C10   1s     -0.0061    0.0010   -0.0066    0.0010    0.0000    0.0012    0.0000   -0.0000    0.0000   -0.0000
       27 C10   2s     -0.0026   -0.0151   -0.0009    0.0297   -0.0000   -0.0554    0.0000   -0.0000    0.0000   -0.0000
       28 C10   2px     0.1832    0.0700    0.3263   -0.0709   -0.0000   -0.2637   -0.0000    0.0000   -0.0000    0.0000
       29 C10   2py    -0.1479    0.3367   -0.0621    0.0641   -0.0000   -0.1100    0.0000   -0.0000    0.0000   -0.0000
       30 C10   2pz    -0.0000   -0.0000   -0.0000   -0.0000    0.3575   -0.0000    0.1606   -0.3121   -0.3610    0.3990
       31 H11   1s     -0.1445   -0.0288   -0.2758    0.0902    0.0000    0.2197    0.0000   -0.0000    0.0000   -0.0000
       32 C12   1s     -0.0053    0.0042   -0.0028    0.0035    0.0000    0.0012    0.0000    0.0000   -0.0000    0.0000
       33 C12   2s     -0.0998   -0.0174   -0.0162   -0.0510   -0.0000   -0.0467   -0.0000   -0.0000    0.0000   -0.0000
       34 C12   2px    -0.2493    0.0824   -0.0833    0.2657    0.0000    0.2589    0.0000   -0.0000    0.0000   -0.0000
       35 C12   2py     0.1476   -0.2528    0.2087    0.0819    0.0000    0.1019   -0.0000    0.0000   -0.0000    0.0000
       36 C12   2pz     0.0000   -0.0000   -0.0000   -0.0000    0.3227   -0.0000    0.2997   -0.0994   -0.4253   -0.4831
       37 H13   1s     -0.2426    0.0747   -0.1010    0.2031    0.0000    0.2174    0.0000   -0.0000    0.0000   -0.0000
       38 C14   1s     -0.0016    0.0049    0.0028    0.0036    0.0000    0.0015   -0.0000    0.0000   -0.0000    0.0000
       39 C14   2s      0.0497    0.0489    0.0481    0.0014   -0.0000   -0.0409   -0.0000    0.0000    0.0000    0.0000
       40 C14   2px     0.0313   -0.1529   -0.1456   -0.3029   -0.0000   -0.2417   -0.0000    0.0000   -0.0000    0.0000
       41 C14   2py    -0.0179    0.2919   -0.0162   -0.0547   -0.0000   -0.1231   -0.0000    0.0000   -0.0000    0.0000
       42 C14   2pz     0.0000   -0.0000   -0.0000   -0.0000    0.2249   -0.0000    0.3733    0.3704    0.2067   -0.2220
       43 H15   1s     -0.0004    0.1633    0.1368    0.2668    0.0000    0.1945    0.0000   -0.0000    0.0000   -0.0000
       44 C16   1s     -0.0003    0.0078    0.0013    0.0010   -0.0000   -0.0010   -0.0000   -0.0000    0.0000    0.0000
       45 C16   2s      0.0208   -0.0257    0.0064   -0.0293   -0.0000   -0.0167   -0.0000    0.0000   -0.0000    0.0000
       46 C16   2px     0.2473    0.1088    0.2462    0.2476    0.0000    0.1682    0.0000   -0.0000    0.0000   -0.0000
       47 C16   2py     0.1664   -0.2737    0.0862    0.0304    0.0000    0.0657   -0.0000    0.0000   -0.0000    0.0000
       48 C16   2pz     0.0000   -0.0000   -0.0000   -0.0000    0.1472   -0.0000    0.2908    0.3958    0.3664    0.4329
       49 H17   1s      0.1743    0.1018    0.1954    0.2074    0.0000    0.1448    0.0000   -0.0000    0.0000   -0.0000
       50 H18   1s     -0.2047    0.1023   -0.1785   -0.1701   -0.0000   -0.1485   -0.0000    0.0000   -0.0000    0.0000
 
          Orbital       31        32        33        34        35        36        37        38        39        40    
          Energy        0.1603    0.2586    0.3218    0.4256    0.4814    0.5140    0.5191    0.5269    0.5350    0.5440
          Occ. No.      0.0000    0.0000    0.0000    0.0000    0.0000    0.0000    0.0000    0.0000    0.0000    0.0000
 
        1 C1    1s     -0.0000    0.0000   -0.0000    0.0175   -0.0146    0.0630   -0.0991   -0.0693   -0.0703   -0.0465
        2 C1    2s     -0.0000    0.0000   -0.0000    0.1526   -0.1034    0.5136   -0.7792   -0.5840   -0.5193   -0.4168
        3 C1    2px    -0.0000   -0.0000    0.0000    0.2672   -0.3898    0.1600    0.1660    0.1947    0.2340   -0.1317
        4 C1    2py    -0.0000    0.0000   -0.0000    0.0212   -0.1800    0.3178   -0.2825    0.1332   -0.2292   -0.1767
        5 C1    2pz    -0.5271    0.4337   -0.2391    0.0000   -0.0000   -0.0000    0.0000    0.0000    0.0000   -0.0000
        6 H2    1s      0.0000   -0.0000    0.0000    0.2292   -0.3675   -0.0844    0.5590    0.5074    0.5098    0.0957
        7 H3    1s      0.0000   -0.0000    0.0000   -0.3117    0.4660   -0.6292    0.4857    0.0701    0.2446    0.4717
        8 C4    1s     -0.0000    0.0000   -0.0000   -0.0149   -0.0257    0.0075   -0.0409    0.0790   -0.0782    0.0796
        9 C4    2s     -0.0000    0.0000   -0.0000   -0.1240   -0.2158   -0.0032   -0.2729    0.6489   -0.6174    0.6856
       10 C4    2px     0.0000   -0.0000    0.0000    0.3846   -0.5013    0.2712   -0.0821    0.1901   -0.0645   -0.0512
       11 C4    2py     0.0000   -0.0000    0.0000    0.1190   -0.0479    0.0401    0.2840    0.0608    0.3958   -0.2878
       12 C4    2pz     0.5006   -0.5988    0.4034   -0.0000    0.0000    0.0000   -0.0000   -0.0000   -0.0000    0.0000
       13 H5    1s     -0.0000    0.0000   -0.0000   -0.3783    0.6616   -0.2380    0.2032   -0.4753    0.3673   -0.3643
       14 C6    1s      0.0000   -0.0000    0.0000    0.0190   -0.0072    0.0753   -0.0049    0.0207    0.0778   -0.0830
       15 C6    2s      0.0000   -0.0000    0.0000    0.1547   -0.0263    0.6255   -0.0441    0.0909    0.6623   -0.6806
       16 C6    2px     0.0000   -0.0000    0.0000    0.4361   -0.2881   -0.1752    0.1191   -0.2670    0.0374    0.1016
       17 C6    2py     0.0000   -0.0000    0.0000    0.0216   -0.1104    0.0114    0.2965   -0.0175    0.2504   -0.4344
       18 C6    2pz     0.0952    0.4982   -0.5591    0.0000   -0.0000   -0.0000    0.0000    0.0000    0.0000   -0.0000
       19 H7    1s      0.0000   -0.0000    0.0000    0.4456   -0.3509   -0.4354    0.1066   -0.2908   -0.3682    0.4403
       20 C8    1s      0.0000   -0.0000    0.0000   -0.0177   -0.0118   -0.0504    0.0595    0.0752   -0.0312   -0.0323
       21 C8    2s      0.0000   -0.0000    0.0000   -0.1415   -0.0950   -0.4646    0.4438    0.6193   -0.3014   -0.1977
       22 C8    2px     0.0000   -0.0000    0.0000    0.4839   -0.1643   -0.1722    0.2135   -0.1250    0.0976   -0.1862
       23 C8    2py    -0.0000    0.0000   -0.0000    0.0556    0.1039   -0.1165    0.1132   -0.4051    0.0970    0.0535
       24 C8    2pz    -0.4504   -0.2330    0.6262   -0.0000    0.0000    0.0000   -0.0000    0.0000   -0.0000    0.0000
       25 H9    1s     -0.0000    0.0000   -0.0000   -0.4971    0.2136    0.4367   -0.3953   -0.1787    0.0281    0.2031
       26 C10   1s      0.0000   -0.0000    0.0000    0.0177   -0.0118    0.0504    0.0595   -0.0752    0.0312   -0.0323
       27 C10   2s      0.0000   -0.0000    0.0000    0.1415   -0.0950    0.4646    0.4438   -0.6193    0.3014   -0.1975
       28 C10   2px    -0.0000    0.0000   -0.0000    0.4839    0.1643   -0.1722   -0.2135   -0.1251    0.0976    0.1861
       29 C10   2py     0.0000   -0.0000    0.0000    0.0556   -0.1039   -0.1166   -0.1133   -0.4051    0.0970   -0.0534
       30 C10   2pz     0.4504   -0.2330   -0.6262    0.0000   -0.0000   -0.0000    0.0000   -0.0000    0.0000   -0.0000
       31 H11   1s     -0.0000    0.0000   -0.0000    0.4971    0.2136   -0.4368   -0.3952    0.1787   -0.0281    0.2029
       32 C12   1s      0.0000   -0.0000    0.0000   -0.0190   -0.0072   -0.0753   -0.0049   -0.0207   -0.0778   -0.0830
       33 C12   2s      0.0000   -0.0000    0.0000   -0.1547   -0.0263   -0.6256   -0.0441   -0.0908   -0.6624   -0.6804
       34 C12   2px     0.0000   -0.0000    0.0000    0.4361    0.2881   -0.1752   -0.1191   -0.2670    0.0373   -0.1016
       35 C12   2py    -0.0000    0.0000   -0.0000    0.0216    0.1104    0.0114   -0.2965   -0.0175    0.2504    0.4344
       36 C12   2pz    -0.0952    0.4982    0.5591   -0.0000    0.0000    0.0000   -0.0000    0.0000   -0.0000   -0.0000
       37 H13   1s     -0.0000    0.0000   -0.0000   -0.4456   -0.3509    0.4355    0.1066    0.2907    0.3682    0.4402
       38 C14   1s     -0.0000    0.0000   -0.0000    0.0149   -0.0257   -0.0075   -0.0409   -0.0790    0.0782    0.0796
       39 C14   2s     -0.0000    0.0000   -0.0000    0.1240   -0.2158    0.0031   -0.2729   -0.6489    0.6175    0.6854
       40 C14   2px    -0.0000    0.0000   -0.0000    0.3846    0.5013    0.2712    0.0821    0.1901   -0.0645    0.0512
       41 C14   2py    -0.0000    0.0000   -0.0000    0.1190    0.0479    0.0401   -0.2840    0.0608    0.3958    0.2878
       42 C14   2pz    -0.5006   -0.5988   -0.4034    0.0000   -0.0000    0.0000    0.0000   -0.0000    0.0000    0.0000
       43 H15   1s      0.0000   -0.0000    0.0000    0.3783    0.6616    0.2380    0.2032    0.4753   -0.3674   -0.3641
       44 C16   1s     -0.0000    0.0000   -0.0000   -0.0175   -0.0146   -0.0630   -0.0991    0.0693    0.0703   -0.0465
       45 C16   2s     -0.0000    0.0000   -0.0000   -0.1526   -0.1034   -0.5136   -0.7792    0.5841    0.5192   -0.4167
       46 C16   2px     0.0000   -0.0000    0.0000    0.2672    0.3898    0.1600   -0.1660    0.1947    0.2340    0.1317
       47 C16   2py    -0.0000    0.0000   -0.0000    0.0212    0.1800    0.3178    0.2825    0.1331   -0.2292    0.1767
       48 C16   2pz     0.5271    0.4337    0.2391   -0.0000    0.0000   -0.0000    0.0000    0.0000   -0.0000   -0.0000
       49 H17   1s      0.0000   -0.0000    0.0000   -0.2292   -0.3675    0.0845    0.5590   -0.5074   -0.5098    0.0956
       50 H18   1s     -0.0000    0.0000   -0.0000    0.3117    0.4660    0.6292    0.4856   -0.0701   -0.2445    0.4717
 
          Orbital       41    
          Energy        0.5447
          Occ. No.      0.0000
 
        1 C1    1s     -0.0429
        2 C1    2s     -0.3671
        3 C1    2px     0.1918
        4 C1    2py    -0.1147
        5 C1    2pz     0.0000
        6 H2    1s      0.3853
        7 H3    1s      0.1711
        8 C4    1s      0.0338
        9 C4    2s      0.3139
       10 C4    2px     0.1009
       11 C4    2py    -0.0893
       12 C4    2pz    -0.0000
       13 H5    1s     -0.3730
       14 C6    1s     -0.0544
       15 C6    2s     -0.3973
       16 C6    2px     0.1593
       17 C6    2py    -0.0936
       18 C6    2pz    -0.0000
       19 H7    1s      0.3325
       20 C8    1s     -0.0844
       21 C8    2s     -0.6816
       22 C8    2px    -0.2556
       23 C8    2py     0.3765
       24 C8    2pz     0.0000
       25 H9    1s      0.6752
       26 C10   1s      0.0844
       27 C10   2s      0.6817
       28 C10   2px    -0.2556
       29 C10   2py     0.3765
       30 C10   2pz    -0.0000
       31 H11   1s     -0.6753
       32 C12   1s      0.0544
       33 C12   2s      0.3976
       34 C12   2px     0.1593
       35 C12   2py    -0.0938
       36 C12   2pz     0.0000
       37 H13   1s     -0.3327
       38 C14   1s     -0.0338
       39 C14   2s     -0.3142
       40 C14   2px     0.1009
       41 C14   2py    -0.0894
       42 C14   2pz    -0.0000
       43 H15   1s      0.3731
       44 C16   1s      0.0429
       45 C16   2s      0.3672
       46 C16   2px     0.1918
       47 C16   2py    -0.1147
       48 C16   2pz     0.0000
       49 H17   1s     -0.3853
       50 H18   1s     -0.1712
--
 
 
++    Molecular charges:
      ------------------
 
      Mulliken charges per centre and basis function type
      ---------------------------------------------------
 
             C1      H2      H3      C4      H5      C6      H7      C8      H9      C10     H11     C12   
      1s     2.0003  0.8430  0.8369  2.0002  0.8386  2.0002  0.8435  2.0002  0.8431  2.0002  0.8431  2.0002
      2s     1.1771  0.0000  0.0000  1.1203  0.0000  1.1187  0.0000  1.1171  0.0000  1.1171  0.0000  1.1187
      2px    1.0932  0.0000  0.0000  1.0671  0.0000  1.0610  0.0000  1.0625  0.0000  1.0625  0.0000  1.0610
      2pz    1.0109  0.0000  0.0000  0.9919  0.0000  0.9988  0.0000  0.9984  0.0000  0.9984  0.0000  0.9988
      2py    1.0393  0.0000  0.0000  0.9830  0.0000  0.9761  0.0000  0.9785  0.0000  0.9785  0.0000  0.9761
      Total  6.3208  0.8430  0.8369  6.1625  0.8386  6.1548  0.8435  6.1568  0.8431  6.1568  0.8431  6.1548
 
      N-E   -0.3208  0.1570  0.1631 -0.1625  0.1614 -0.1548  0.1565 -0.1568  0.1569 -0.1568  0.1569 -0.1548
 
             H13     C14     H15     C16     H17     H18   
      1s     0.8435  2.0002  0.8386  2.0003  0.8430  0.8369
      2s     0.0000  1.1203  0.0000  1.1771  0.0000  0.0000
      2px    0.0000  1.0671  0.0000  1.0932  0.0000  0.0000
      2pz    0.0000  0.9919  0.0000  1.0109  0.0000  0.0000
      2py    0.0000  0.9830  0.0000  1.0393  0.0000  0.0000
      Total  0.8435  6.1625  0.8386  6.3208  0.8430  0.8369
 
      N-E    0.1565 -0.1625  0.1614 -0.3208  0.1570  0.1631
 
      Total electronic charge=   58.000000
 
      Total            charge=   -0.000000
--
 
 
  Input file to MOLDEN was generated!
 
 
++    Static properties:
      ------------------
 
 
      LoProp Charges per center
 

                   C1       H2       H3       C4       H5       C6       H7       C8       H9       C10   
      Nuclear      6.0000   1.0000   1.0000   6.0000   1.0000   6.0000   1.0000   6.0000   1.0000   6.0000
      Electronic  -6.2187  -0.8976  -0.8930  -6.0941  -0.8976  -6.0990  -0.9006  -6.0990  -0.9002  -6.0990
 
      Total       -0.2187   0.1024   0.1070  -0.0941   0.1024  -0.0990   0.0994  -0.0990   0.0998  -0.0990
 

                   H11      C12      H13      C14      H15      C16      H17      H18   
      Nuclear      1.0000   6.0000   1.0000   6.0000   1.0000   6.0000   1.0000   1.0000
      Electronic  -0.9002  -6.0990  -0.9006  -6.0941  -0.8976  -6.2187  -0.8976  -0.8930
 
      Total        0.0998  -0.0990   0.0994  -0.0941   0.1024  -0.2187   0.1024   0.1070
--
 
 
++    Natural Bond Order analysis
      ---------------------------
      Based on LoProp computed density
      -------------------------------------------------------------------------------------
      Atom A       Atom B       Bond Order | Atom A       Atom B       Bond Order
        C1           C4             0.999  |   C6           H7             0.990
        C6           C8             1.943  |   C8           H9             0.990
        C10          C12            1.943  |   C8           C10            0.992
        C14          C16            0.999  |   C10          H11            0.990
        C1           H2             0.992  |   C12          H13            0.990
        C1           H3             0.993  |   C12          C14            0.992
        C4           H5             0.990  |   C14          H15            0.990
        C4           C6             0.992  |   C16          H17            0.992
        C16          H18            0.993  |
      -------------------------------------------------------------------------------------
      NBO located     16.000 core electrons.
      NBO located     37.544 electrons involved in   17 bonds.
      The remaining    4.456 electrons are to be considered as diffuse
--
 
 
++    Molecular properties:
      ---------------------
 
      Charge (e):
                      =   -0.0000
      Dipole Moment (Debye):
      Origin of the operator (Ang)=    0.0000    0.0000    0.0000
                   X=  9.0437E-06               Y= -2.6170E-05               Z= -2.7213E-12           Total=  2.7688E-05
      Quadrupole Moment (Debye*Ang):
      Origin of the operator (Ang)=    0.0000    0.0000    0.0000
                  XX= -5.1260E+01              XY= -1.9098E-01              XZ= -3.5576E-12              YY= -5.3277E+01
                  YZ=  2.0512E-12              ZZ= -6.0409E+01
      In traceless form (Debye*Ang)
                  XX=  5.5830E+00              XY= -2.8647E-01              XZ= -5.3364E-12              YY=  2.5570E+00
                  YZ=  3.0768E-12              ZZ= -8.1400E+00
--
 
 
  Input file to MOLDEN was generated!
 
 ###############################################################################
 ###############################################################################
 ###                                                                         ###
 ###                                                                         ###
 ###    RunFile label nBas                                                   ###
 ###    was used       80 times                                              ###
 ###                                                                         ###
 ###                                                                         ###
 ###############################################################################
 ###############################################################################
--- Stop Module:  scf at Mon Mar 26 16:52:19 2018 /rc=0 ---
--- Module scf spent 10 seconds 
*** 
--- Start Module: rasscf at Mon Mar 26 16:52:19 2018 
 
()()()()()()()()()()()()()()()()()()()()()()()()()()()()()()()()()()()()()()()()()()()()()()()()()()

                                              &RASSCF

                       only a single process is used, running in SERIAL mode
                       available to each process: 5.0 GB of memory, 1 thread
()()()()()()()()()()()()()()()()()()()()()()()()()()()()()()()()()()()()()()()()()()()()()()()()()()
 
 
      Header of the ONEINT file:
      --------------------------
      
      Integrals generated by seward 4.2.0  , Mon Mar 26 16:51:45 2018
 
 
      OrdInt status: non-squared
 
 
      Cartesian coordinates in Angstrom:
      -----------------------------------------------------
      No.  Label        X            Y            Z        
      -----------------------------------------------------
       1   C1         0.13600800   4.31235100   0.00000000
       2   H2        -0.93834500   4.48241100   0.00000000
       3   H3         0.76956800   5.19381900   0.00000000
       4   C4         0.65113600   3.07091000   0.00000000
       5   H5         1.73456300   2.94575800   0.00000000
       6   C6        -0.13600800   1.85584700   0.00000000
       7   H7        -1.22064700   1.97274800   0.00000000
       8   C8         0.38938900   0.60611600   0.00000000
       9   H9         1.47470800   0.49388200   0.00000000
      10   C10       -0.38938900  -0.60611600   0.00000000
      11   H11       -1.47470800  -0.49388200   0.00000000
      12   C12        0.13600800  -1.85584700   0.00000000
      13   H13        1.22064700  -1.97274800   0.00000000
      14   C14       -0.65113600  -3.07091000   0.00000000
      15   H15       -1.73456300  -2.94575800   0.00000000
      16   C16       -0.13600800  -4.31235100   0.00000000
      17   H17        0.93834500  -4.48241100   0.00000000
      18   H18       -0.76956800  -5.19381900   0.00000000
      -----------------------------------------------------
      Nuclear repulsion energy =  297.20317252
 
++    Wave function specifications:
      -----------------------------
 
      Number of closed shell electrons          50
      Number of electrons in active shells       8
      Max number of holes in RAS1 space          0
      Max nr of electrons in RAS3 space          0
      Number of inactive orbitals               25
      Number of active orbitals                  8
      Number of secondary orbitals              17
      Spin quantum number                      0.0
      State symmetry                             1
--
 
++    Orbital specifications:
      -----------------------
 
      Symmetry species                           1
                                                 a
      Frozen orbitals                            0
      Inactive orbitals                         25
      Active orbitals                            8
      RAS1 orbitals                              0
      RAS2 orbitals                              8
      RAS3 orbitals                              0
      Secondary orbitals                        17
      Deleted orbitals                           0
      Number of basis functions                 50
--
 
++    CI expansion specifications:
      ----------------------------
 
      Number of CSFs                          1764
      Number of determinants                  2485
      Number of root(s) required                 1
      Root chosen for geometry opt.              1
      CI root used                               1
         
      highest root included in the CI            1
      max. size of the explicit Hamiltonian    200
--
 
++    Optimization specifications:
      ----------------------------
 
      RASSCF algorithm: LK Cholesky
      Maximum number of macro iterations       100
      Maximum number of SX iterations          100
      Threshold for RASSCF energy            0.100E-07
      Threshold for max MO rotation          0.100E+00
      Threshold for max BLB element          0.100E-03
      Level shift parameter                  0.500E+00
      Make Quasi-Newton update
--
 
      The MO-coefficients are taken from the file:
      INPORB                                                                                                                          
      Title: SCF orbitals                                                                  
 
      Total molecular charge    0.00
 
      ************************************************************************************************************************
      *                                                                                                                      *
      *                                            Wave function control section                                             *
      *                                                                                                                      *
      ************************************************************************************************************************
 
 
                                         RASSCF iterations: Energy and convergence statistics
                                         ----------------------------------------------------
 
      Iter CI   SX   CI       RASSCF       Energy    max ROT     max BLB   max BLB  Level Ln srch  Step   QN   Walltime
          iter iter root      energy       change     param      element    value   shift minimum  type update hh:mm:ss
 Nr of preliminary CI iterations:   4
        1   1   10    1  -308.51722076    0.00E+00  -0.10E+00*  25  28 1  0.11E-01*  0.00   0.00    SX    NO    0:00:01
        2   3    9    1  -308.51945610   -0.22E-02*  0.13E+00*  25  28 1  0.94E-02*  0.00   0.00    SX    NO    0:00:00
        3   3    8    1  -308.52095004   -0.15E-02*  0.18E+00*  25  28 1  0.70E-02*  0.00   0.00    SX    NO    0:00:00
        4   5    7    1  -308.52184681   -0.90E-03* -0.16E+00*  25  28 1  0.48E-02*  0.00   0.00    SX    NO    0:00:00
        5   4    9    1  -308.52236723   -0.52E-03* -0.23E+00*  25  28 1  0.31E-02*  0.00   2.50    QN   YES    0:00:00
 ###############################################################################
 ###############################################################################
 ###                                                                         ###
 ###                                                                         ###
 ###    Large orbital rotation.                                              ###
 ###                                                                         ###
 ###                                                                         ###
 ###############################################################################
 ###############################################################################
      Molecular orbital  25 of symmetry 1 MO space 1  weight is    0.203799
 ###############################################################################
 ###############################################################################
 ###                                                                         ###
 ###                                                                         ###
 ###    Large orbital rotation.                                              ###
 ###                                                                         ###
 ###                                                                         ###
 ###############################################################################
 ###############################################################################
      Molecular orbital  26 of symmetry 1 MO space 2  weight is    0.190597
        6   4   11    1  -308.52285020   -0.48E-03*  0.89E+00*  25  26 1 -0.16E-02*  0.00   2.50    QN   YES    0:00:00
        7   8   15    1  -308.55766173   -0.35E-01*  0.26E+00*  25  26 1 -0.22E-01*  0.01   0.00    SX    NO    0:00:00
        8   4   11    1  -308.56696391   -0.93E-02*  0.81E-01   25  26 1 -0.70E-02*  0.02   1.22    QN   YES    0:00:00
        9   1    9    1  -308.56790678   -0.94E-03* -0.45E-01   25  30 1  0.30E-02*  0.02   1.51    QN   YES    0:00:00
       10   4    8    1  -308.56825180   -0.35E-03* -0.21E-01   29  38 1  0.14E-02*  0.02   1.41    QN   YES    0:00:00
       11   1    9    1  -308.56836461   -0.11E-03*  0.50E-02   29  38 1  0.65E-03*  0.02   1.30    QN   YES    0:00:00
       12   3    8    1  -308.56838060   -0.16E-04*  0.20E-02   25  26 1  0.17E-03*  0.02   1.23    QN   YES    0:00:00
       13   3    7    1  -308.56838278   -0.22E-05*  0.96E-03   30  50 1 -0.77E-04   0.02   1.34    QN   YES    0:00:00
       14   3    6    1  -308.56838357   -0.79E-06* -0.80E-03   25  26 1 -0.56E-04   0.02   1.47    QN   YES    0:00:00
       15   1    7    1  -308.56838387   -0.30E-06* -0.45E-03   25  26 1 -0.37E-04   0.02   1.57    LS   YES    0:00:00
       16   3    7    1  -308.56838387    0.81E-08   0.24E-03   22  50 1 -0.36E-04   0.02   0.42    QN   YES    0:00:00
      Convergence after 16 iterations
       17   1    7    1  -308.56838391   -0.42E-07*  0.24E-03   13  30 1 -0.14E-04   0.02   0.42    QN   YES    0:00:00
 
      ************************************************************************************************************************
                                                      Wave function printout:
                       occupation of active orbitals, and spin coupling of open shells (u,d: Spin up or down)
      ************************************************************************************************************************
 
      Note: transformation to natural orbitals
      has been made, which may change the order of the CSFs.
 
      printout of CI-coefficients larger than  0.05 for root  1
      energy=    -308.568384
      conf/sym  11111111     Coeff  Weight
             1  22220000   0.88334 0.78028
            18  22202000  -0.19036 0.03624
            20  22200200  -0.06359 0.00404
            29  22udud00   0.16822 0.02830
            32  22ud0ud0   0.05282 0.00279
            41  2u2du0d0  -0.12463 0.01553
            45  2u2d0u0d  -0.05786 0.00335
            52  u22d0ud0  -0.06460 0.00417
            54  u22du00d  -0.12773 0.01632
            58  22022000  -0.06596 0.00435
            60  22020200  -0.08713 0.00759
            69  2ud2ud00   0.05581 0.00311
            72  2ud20ud0   0.10601 0.01124
            74  2ud2u00d   0.06542 0.00428
            81  u2d2u0d0   0.05984 0.00358
            85  u2d20u0d   0.07255 0.00526
            93  20220020  -0.05197 0.00270
            99  ud22ud00  -0.05214 0.00272
           106  ud2200ud  -0.06165 0.00380
           118  22uudd00  -0.05133 0.00263
 
      Natural orbitals and occupation numbers for root  1
      sym 1:   1.933266   1.915368   1.877626   1.799858   0.203121   0.122421   0.083220   0.065119
 
      ************************************************************************************************************************
      *                                                                                                                      *
      *                                                    Final results                                                     *
      *                                                                                                                      *
      ************************************************************************************************************************
 
 
++    Wave function specifications:
      -----------------------------
 
      Number of closed shell electrons          50
      Number of electrons in active shells       8
      Max number of holes in RAS1 space          0
      Max nr of electrons in RAS3 space          0
      Number of inactive orbitals               25
      Number of active orbitals                  8
      Number of secondary orbitals              17
      Spin quantum number                      0.0
      State symmetry                             1
--
 
++    Orbital specifications:
      -----------------------
 
      Symmetry species                           1
                                                 a
      Frozen orbitals                            0
      Inactive orbitals                         25
      Active orbitals                            8
      RAS1 orbitals                              0
      RAS2 orbitals                              8
      RAS3 orbitals                              0
      Secondary orbitals                        17
      Deleted orbitals                           0
      Number of basis functions                 50
--
 
++    CI expansion specifications:
      ----------------------------
 
      Number of CSFs                          1764
      Number of determinants                  2485
      Number of root(s) required                 1
      CI root used                               1
      highest root included in the CI            1
      Root passed to geometry opt.               1
--
 
++    Final optimization conditions:
      ------------------------------
 
      Average CI energy                            -308.56838391
      RASSCF energy for state  1                   -308.56838391
      Super-CI energy                                -0.00000003
      RASSCF energy change                            0.00000000
      Max change in MO coefficients               0.222E-03
      Max non-diagonal density matrix element     0.237E-03
      Maximum BLB matrix element                 -0.142E-04
      (orbital pair  13,  30 in symmetry   1)
      Norm of electronic gradient            0.569E-04
--
 
 
      Final state energy(ies):
      ------------------------
 
::    RASSCF root number  1 Total energy:   -308.56838391
 
++    Molecular orbitals:
      -------------------
 
      Pseudonatural active orbitals and approximate occupation numbers
 
 
 
 
      Molecular orbitals for symmetry species 1: a  
 
 
      Orbital            1         2         3         4         5         6         7         8         9        10
      Energy      -11.3525  -11.3525  -11.3491  -11.3485  -11.3471  -11.3469  -11.3338  -11.3338   -1.1498   -1.1179
      Occ. No.      2.0000    2.0000    2.0000    2.0000    2.0000    2.0000    2.0000    2.0000    2.0000    2.0000
 
    1 C1    1s     -0.0367    0.0083   -0.0015    0.0020    0.0034   -0.0031    0.1147   -0.9929   -0.0130    0.0238
    2 C1    2s      0.0006   -0.0001   -0.0001    0.0001    0.0000   -0.0000    0.0001   -0.0006    0.1047   -0.2009
    3 C1    2px     0.0000   -0.0000   -0.0000   -0.0000   -0.0001    0.0000    0.0000   -0.0002    0.0134   -0.0243
    4 C1    2py    -0.0001    0.0000    0.0001   -0.0001   -0.0001    0.0001   -0.0000    0.0004   -0.0372    0.0658
    5 C1    2pz     0.0000   -0.0000   -0.0000    0.0000    0.0000    0.0000    0.0000   -0.0000   -0.0000    0.0000
    6 H2    1s      0.0004   -0.0001   -0.0000    0.0000    0.0001   -0.0001   -0.0001    0.0008    0.0139   -0.0304
    7 H3    1s      0.0004   -0.0001   -0.0000    0.0000    0.0000   -0.0000   -0.0001    0.0008    0.0142   -0.0304
    8 C4    1s     -0.9719    0.2212   -0.0227    0.0300    0.0459   -0.0413   -0.0044    0.0383   -0.0230    0.0352
    9 C4    2s     -0.0004    0.0001   -0.0003    0.0003    0.0004   -0.0004   -0.0001    0.0007    0.1874   -0.2940
   10 C4    2px     0.0002   -0.0000    0.0000    0.0000   -0.0000    0.0001    0.0000   -0.0001   -0.0351    0.0489
   11 C4    2py    -0.0002    0.0000    0.0003   -0.0002   -0.0001    0.0000   -0.0000    0.0002   -0.0134   -0.0080
   12 C4    2pz     0.0000   -0.0000   -0.0000    0.0000    0.0000   -0.0000    0.0000   -0.0000   -0.0000    0.0000
   13 H5    1s      0.0008   -0.0002   -0.0002    0.0002    0.0001   -0.0001   -0.0000    0.0003    0.0247   -0.0448
   14 C6    1s     -0.0699    0.0158    0.2423   -0.3555   -0.6642    0.6073    0.0003   -0.0024   -0.0330    0.0306
   15 C6    2s      0.0005   -0.0001   -0.0004    0.0001   -0.0005    0.0005   -0.0000    0.0001    0.2634   -0.2558
   16 C6    2px     0.0000   -0.0000    0.0001   -0.0001   -0.0001    0.0002    0.0000   -0.0000    0.0436   -0.0451
   17 C6    2py     0.0002   -0.0000    0.0002    0.0002    0.0002   -0.0001   -0.0000    0.0003   -0.0354   -0.0147
   18 C6    2pz     0.0000   -0.0000    0.0000    0.0000    0.0000   -0.0000    0.0000   -0.0000   -0.0000    0.0000
   19 H7    1s      0.0003   -0.0001   -0.0005    0.0004    0.0004   -0.0004   -0.0000    0.0002    0.0356   -0.0392
   20 C8    1s     -0.0072    0.0020    0.6643   -0.6099    0.2444   -0.3566    0.0000    0.0000   -0.0374    0.0145
   21 C8    2s      0.0002   -0.0001   -0.0003   -0.0005    0.0005   -0.0007   -0.0000    0.0001    0.3001   -0.1149
   22 C8    2px     0.0001    0.0000   -0.0001    0.0001   -0.0000    0.0001    0.0000   -0.0000   -0.0521    0.0114
   23 C8    2py     0.0003    0.0000    0.0003    0.0002   -0.0000   -0.0002   -0.0000    0.0001    0.0128   -0.0726
   24 C8    2pz     0.0000   -0.0000    0.0000    0.0000    0.0000   -0.0000   -0.0000   -0.0000   -0.0001    0.0000
   25 H9    1s      0.0002   -0.0001   -0.0008    0.0003    0.0001    0.0001   -0.0000    0.0000    0.0405   -0.0184
   26 C10   1s      0.0013    0.0074    0.6633    0.6110    0.2424    0.3580   -0.0000   -0.0001   -0.0374   -0.0145
   27 C10   2s      0.0000   -0.0002   -0.0003    0.0005    0.0005    0.0007   -0.0001   -0.0000    0.3001    0.1149
   28 C10   2px     0.0000    0.0000    0.0001    0.0001    0.0000    0.0001   -0.0000    0.0000    0.0521    0.0114
   29 C10   2py     0.0001    0.0002   -0.0003    0.0002    0.0000   -0.0002    0.0001    0.0000   -0.0128   -0.0726
   30 C10   2pz    -0.0000   -0.0000    0.0000   -0.0000    0.0000    0.0000    0.0000    0.0000   -0.0001   -0.0000
   31 H11   1s     -0.0000   -0.0002   -0.0008   -0.0003    0.0001   -0.0001   -0.0000    0.0000    0.0405    0.0184
   32 C12   1s      0.0160    0.0698    0.2418    0.3559   -0.6609   -0.6110    0.0024    0.0003   -0.0330   -0.0306
   33 C12   2s     -0.0001   -0.0006   -0.0004   -0.0001   -0.0005   -0.0005   -0.0001   -0.0000    0.2634    0.2558
   34 C12   2px    -0.0000    0.0000   -0.0001   -0.0001    0.0001    0.0002   -0.0000   -0.0000   -0.0436   -0.0451
   35 C12   2py     0.0001    0.0002   -0.0002    0.0002   -0.0002   -0.0001    0.0003    0.0000    0.0354   -0.0147
[...]
   43 H15   1s      0.0497    0.0284    0.0363   -0.1164   -0.0964   -0.1756   -0.1496    0.0394   -0.1013    0.1084
   44 C16   1s     -0.0300   -0.0273    0.0211   -0.0151   -0.0023   -0.0066   -0.0000    0.0026    0.0008    0.0088
   45 C16   2s      0.2712    0.2733   -0.2759    0.2750    0.0378    0.1519    0.0122    0.1021    0.0135    0.0364
   46 C16   2px    -0.0294   -0.0242    0.0052    0.0441    0.0609    0.1148    0.1974    0.0142    0.2593    0.1164
   47 C16   2py     0.0742    0.0502    0.0272   -0.1219   -0.0152   -0.0983    0.0416   -0.2501    0.0844   -0.3464
   48 C16   2pz     0.0000    0.0000   -0.0000    0.0000    0.0000    0.0000   -0.0000   -0.0000   -0.0000   -0.0000
   49 H17   1s      0.0492    0.0604   -0.0881    0.1288    0.0453    0.1242    0.1206    0.0737    0.1677    0.1309
   50 H18   1s      0.0488    0.0614   -0.0978    0.1343    0.0035    0.0662   -0.0846    0.1619   -0.1422    0.1607
 
 
      Orbital           21        22        23        24        25        26        27        28        29        30
      Energy       -0.5958   -0.5897   -0.5592   -0.5373   -0.5265   -0.5201   -0.4744   -0.3998   -0.3020    0.0275
 
    1 C1    1s      0.0002    0.0076    0.0012   -0.0010   -0.0010   -0.0000   -0.0000    0.0000   -0.0000   -0.0000
    2 C1    2s     -0.0210   -0.0274    0.0062    0.0297   -0.0164    0.0000    0.0000   -0.0000    0.0000   -0.0000
    3 C1    2px     0.2490   -0.1102   -0.2458    0.2441   -0.1634    0.0000    0.0000   -0.0000    0.0000   -0.0000
    4 C1    2py     0.1639    0.2716   -0.0860    0.0291   -0.0654   -0.0000   -0.0000    0.0000    0.0000    0.0000
    5 C1    2pz     0.0000   -0.0000   -0.0000    0.0000    0.0000   -0.1475   -0.2897    0.3937   -0.3699    0.4369
    6 H2    1s     -0.1764    0.1026    0.1959   -0.2053    0.1416    0.0000    0.0000    0.0000   -0.0000    0.0000
    7 H3    1s      0.2048    0.1003   -0.1792    0.1683   -0.1463   -0.0000   -0.0000   -0.0000    0.0000    0.0000
    8 C4    1s      0.0015    0.0048    0.0028   -0.0036    0.0014    0.0000    0.0000    0.0000   -0.0000    0.0000
    9 C4    2s     -0.0499    0.0503    0.0473   -0.0006   -0.0425   -0.0000   -0.0000    0.0000   -0.0000    0.0000
   10 C4    2px     0.0256    0.1531    0.1500   -0.3032    0.2397    0.0000    0.0000    0.0000   -0.0000   -0.0000
   11 C4    2py    -0.0170   -0.2900    0.0189   -0.0560    0.1250    0.0000    0.0000   -0.0000    0.0000    0.0000
   12 C4    2pz     0.0000   -0.0000    0.0000   -0.0000    0.0000   -0.2275   -0.3752    0.3689   -0.2017   -0.2202
   13 H5    1s     -0.0041    0.1651    0.1403   -0.2675    0.1926    0.0000    0.0000    0.0000   -0.0000    0.0000
   14 C6    1s      0.0052    0.0042   -0.0027   -0.0035    0.0012    0.0000    0.0000   -0.0000    0.0000   -0.0000
   15 C6    2s      0.0999   -0.0186   -0.0158    0.0509   -0.0466   -0.0000   -0.0000   -0.0000    0.0000   -0.0000
   16 C6    2px    -0.2471   -0.0843    0.0791    0.2678   -0.2592   -0.0000   -0.0000    0.0000    0.0000   -0.0000
   17 C6    2py     0.1490    0.2532   -0.2113    0.0814   -0.1018   -0.0000   -0.0000    0.0000    0.0000   -0.0000
   18 C6    2pz    -0.0000   -0.0000    0.0000   -0.0000    0.0000   -0.3217   -0.3002   -0.0948    0.4264   -0.4827
   19 H7    1s      0.2419    0.0761   -0.0980   -0.2058    0.2190    0.0000    0.0000   -0.0000   -0.0000    0.0000
   20 C8    1s      0.0060    0.0010   -0.0065   -0.0010    0.0013    0.0000   -0.0000    0.0000    0.0000   -0.0000
   21 C8    2s      0.0029   -0.0146   -0.0015   -0.0300   -0.0562   -0.0000    0.0000   -0.0000    0.0000   -0.0000
   22 C8    2px     0.1840   -0.0690   -0.3236   -0.0721    0.2671    0.0000   -0.0000    0.0000    0.0000    0.0000
   23 C8    2py    -0.1479   -0.3380    0.0642    0.0649    0.1120    0.0000    0.0000    0.0000   -0.0000   -0.0000
   24 C8    2pz    -0.0000   -0.0000    0.0000   -0.0000    0.0000   -0.3566   -0.1567   -0.3173    0.3582    0.3963
   25 H9    1s      0.1457   -0.0274   -0.2747   -0.0918    0.2231    0.0000    0.0000   -0.0000   -0.0000   -0.0000
   26 C10   1s     -0.0060    0.0010   -0.0065    0.0010    0.0013    0.0000    0.0000    0.0000   -0.0000   -0.0000
   27 C10   2s     -0.0029   -0.0146   -0.0015    0.0300   -0.0562   -0.0000   -0.0000   -0.0000   -0.0000   -0.0000
   28 C10   2px     0.1840    0.0690    0.3236   -0.0721   -0.2671   -0.0000   -0.0000   -0.0000    0.0000   -0.0000
   29 C10   2py    -0.1479    0.3380   -0.0642    0.0649   -0.1120   -0.0000    0.0000   -0.0000   -0.0000    0.0000
   30 C10   2pz     0.0000   -0.0000    0.0000    0.0000    0.0000   -0.3566    0.1567   -0.3173   -0.3582    0.3963
   31 H11   1s     -0.1457   -0.0274   -0.2747    0.0918    0.2231    0.0000   -0.0000   -0.0000    0.0000   -0.0000
   32 C12   1s     -0.0052    0.0042   -0.0027    0.0035    0.0012    0.0000   -0.0000   -0.0000   -0.0000   -0.0000
   33 C12   2s     -0.0999   -0.0186   -0.0158   -0.0509   -0.0466   -0.0000    0.0000   -0.0000   -0.0000   -0.0000
   34 C12   2px    -0.2471    0.0843   -0.0791    0.2678    0.2592    0.0000   -0.0000   -0.0000    0.0000    0.0000
   35 C12   2py     0.1490   -0.2532    0.2113    0.0814    0.1018    0.0000   -0.0000   -0.0000    0.0000    0.0000
   36 C12   2pz     0.0000   -0.0000    0.0000    0.0000    0.0000   -0.3217    0.3002   -0.0948   -0.4264   -0.4827
   37 H13   1s     -0.2419    0.0761   -0.0980    0.2058    0.2190    0.0000   -0.0000   -0.0000    0.0000    0.0000
   38 C14   1s     -0.0015    0.0048    0.0028    0.0036    0.0014    0.0000   -0.0000    0.0000    0.0000    0.0000
   39 C14   2s      0.0499    0.0503    0.0473    0.0006   -0.0425   -0.0000    0.0000    0.0000    0.0000    0.0000
   40 C14   2px     0.0256   -0.1531   -0.1500   -0.3032   -0.2397   -0.0000    0.0000   -0.0000   -0.0000    0.0000
   41 C14   2py    -0.0170    0.2900   -0.0189   -0.0560   -0.1250   -0.0000    0.0000    0.0000    0.0000   -0.0000
   42 C14   2pz    -0.0000   -0.0000    0.0000    0.0000    0.0000   -0.2275    0.3752    0.3689    0.2017   -0.2202
   43 H15   1s      0.0041    0.1651    0.1403    0.2675    0.1926    0.0000   -0.0000    0.0000    0.0000    0.0000
   44 C16   1s     -0.0002    0.0076    0.0012    0.0010   -0.0010   -0.0000    0.0000    0.0000    0.0000   -0.0000
   45 C16   2s      0.0210   -0.0274    0.0062   -0.0297   -0.0164    0.0000   -0.0000   -0.0000   -0.0000   -0.0000
   46 C16   2px     0.2490    0.1102    0.2458    0.2441    0.1634   -0.0000    0.0000    0.0000    0.0000    0.0000
   47 C16   2py     0.1639   -0.2716    0.0860    0.0291    0.0654    0.0000   -0.0000   -0.0000    0.0000   -0.0000
   48 C16   2pz    -0.0000   -0.0000   -0.0000   -0.0000    0.0000   -0.1474    0.2897    0.3937    0.3699    0.4369
   49 H17   1s      0.1764    0.1026    0.1959    0.2053    0.1416    0.0000   -0.0000    0.0000    0.0000    0.0000
   50 H18   1s     -0.2048    0.1003   -0.1792   -0.1683   -0.1463   -0.0000    0.0000   -0.0000   -0.0000    0.0000
 
 
      Orbital           31        32        33
      Energy        0.1443    0.2449    0.3098
 
    1 C1    1s      0.0000   -0.0000    0.0000
    2 C1    2s      0.0000   -0.0000    0.0000
    3 C1    2px     0.0000   -0.0000    0.0000
    4 C1    2py    -0.0000    0.0000   -0.0000
    5 C1    2pz    -0.5260    0.4315   -0.2374
    6 H2    1s     -0.0000    0.0000   -0.0000
    7 H3    1s     -0.0000    0.0000   -0.0000
    8 C4    1s     -0.0000   -0.0000    0.0000
    9 C4    2s     -0.0000   -0.0000    0.0000
   10 C4    2px     0.0000    0.0000   -0.0000
   11 C4    2py    -0.0000    0.0000   -0.0000
   12 C4    2pz     0.5013   -0.5994    0.4033
   13 H5    1s     -0.0000    0.0000   -0.0000
   14 C6    1s     -0.0000    0.0000   -0.0000
   15 C6    2s     -0.0000    0.0000   -0.0000
   16 C6    2px    -0.0000    0.0000   -0.0000
   17 C6    2py    -0.0000    0.0000   -0.0000
   18 C6    2pz     0.0896    0.5002   -0.5589
   19 H7    1s      0.0000   -0.0000    0.0000
   20 C8    1s     -0.0000    0.0000    0.0000
   21 C8    2s     -0.0000    0.0000    0.0000
   22 C8    2px     0.0000   -0.0000   -0.0000
   23 C8    2py     0.0000   -0.0000   -0.0000
   24 C8    2pz    -0.4527   -0.2318    0.6271
   25 H9    1s      0.0000   -0.0000   -0.0000
   26 C10   1s      0.0000    0.0000   -0.0000
   27 C10   2s      0.0000    0.0000   -0.0000
   28 C10   2px     0.0000    0.0000   -0.0000
   29 C10   2py     0.0000    0.0000   -0.0000
   30 C10   2pz     0.4527   -0.2318   -0.6271
   31 H11   1s     -0.0000   -0.0000    0.0000
   32 C12   1s      0.0000    0.0000    0.0000
   33 C12   2s      0.0000    0.0000    0.0000
   34 C12   2px    -0.0000   -0.0000   -0.0000
   35 C12   2py    -0.0000   -0.0000   -0.0000
   36 C12   2pz    -0.0896    0.5002    0.5589
   37 H13   1s     -0.0000   -0.0000   -0.0000
   38 C14   1s      0.0000   -0.0000   -0.0000
   39 C14   2s      0.0000   -0.0000   -0.0000
   40 C14   2px     0.0000   -0.0000   -0.0000
   41 C14   2py    -0.0000   -0.0000   -0.0000
   42 C14   2pz    -0.5013   -0.5994   -0.4033
   43 H15   1s      0.0000    0.0000    0.0000
   44 C16   1s     -0.0000   -0.0000   -0.0000
   45 C16   2s     -0.0000   -0.0000   -0.0000
   46 C16   2px     0.0000    0.0000    0.0000
   47 C16   2py    -0.0000   -0.0000   -0.0000
   48 C16   2pz     0.5260    0.4315    0.2374
   49 H17   1s      0.0000    0.0000    0.0000
   50 H18   1s      0.0000    0.0000    0.0000
--
 
      Von Neumann Entropy (Root  1) =  1.26300
 

      Mulliken population Analysis for root number:  1
      -----------------------------------------------
 
 
++    Molecular charges:
      ------------------
 
      Mulliken charges per centre and basis function type
      ---------------------------------------------------
 
             C1      H2      H3      C4      H5      C6      H7      C8      H9      C10     H11     C12   
      1s     2.0003  0.8441  0.8382  2.0002  0.8415  2.0002  0.8464  2.0002  0.8460  2.0002  0.8460  2.0002
      2s     1.1774  0.0000  0.0000  1.1190  0.0000  1.1182  0.0000  1.1165  0.0000  1.1165  0.0000  1.1182
      2px    1.0930  0.0000  0.0000  1.0651  0.0000  1.0592  0.0000  1.0606  0.0000  1.0606  0.0000  1.0592
      2pz    1.0061  0.0000  0.0000  0.9957  0.0000  0.9988  0.0000  0.9994  0.0000  0.9994  0.0000  0.9988
      2py    1.0392  0.0000  0.0000  0.9812  0.0000  0.9757  0.0000  0.9778  0.0000  0.9778  0.0000  0.9757
      Total  6.3160  0.8441  0.8382  6.1612  0.8415  6.1522  0.8464  6.1545  0.8460  6.1545  0.8460  6.1522
 
      N-E   -0.3160  0.1559  0.1618 -0.1612  0.1585 -0.1522  0.1536 -0.1545  0.1540 -0.1545  0.1540 -0.1522
 
             H13     C14     H15     C16     H17     H18   
      1s     0.8464  2.0002  0.8415  2.0003  0.8441  0.8382
      2s     0.0000  1.1190  0.0000  1.1774  0.0000  0.0000
      2px    0.0000  1.0651  0.0000  1.0930  0.0000  0.0000
      2pz    0.0000  0.9957  0.0000  1.0061  0.0000  0.0000
      2py    0.0000  0.9812  0.0000  1.0392  0.0000  0.0000
      Total  0.8464  6.1612  0.8415  6.3160  0.8441  0.8382
 
      N-E    0.1536 -0.1612  0.1585 -0.3160  0.1559  0.1618
 
      Total electronic charge=   58.000000
 
      Total            charge=   -0.000000
--
 
 

      Expectation values of various properties for root number:  1
      -----------------------------------------------------------
 
 
++    Molecular properties:
      ---------------------
 
      Charge (e):
                      =   -0.0000
      Dipole Moment (Debye):
      Origin of the operator (Ang)=    0.0000    0.0000    0.0000
                   X=  6.9159E-06               Y= -1.1377E-05               Z=  1.9793E-05           Total=  2.3855E-05
      Quadrupole Moment (Debye*Ang):
      Origin of the operator (Ang)=    0.0000    0.0000    0.0000
                  XX= -5.1387E+01              XY= -1.0436E-01              XZ= -5.0202E-11              YY= -5.3247E+01
                  YZ= -1.6615E-09              ZZ= -6.0053E+01
      In traceless form (Debye*Ang)
                  XX=  5.2636E+00              XY= -1.5654E-01              XZ= -7.5303E-11              YY=  2.4732E+00
                  YZ= -2.4923E-09              ZZ= -7.7368E+00
--
 

      LoProp population Analysis for root number:  1
      -----------------------------------------------
 
 
++    LoProp Analysis:
      ----------------
 
 
 
  Input file to MOLDEN was generated!
 
 
++    Static properties:
      ------------------
 
 
      LoProp Charges per center
 

                   C1       H2       H3       C4       H5       C6       H7       C8       H9       C10   
      Nuclear      6.0000   1.0000   1.0000   6.0000   1.0000   6.0000   1.0000   6.0000   1.0000   6.0000
      Electronic  -6.2137  -0.8983  -0.8939  -6.0947  -0.8996  -6.0971  -0.9026  -6.0978  -0.9022  -6.0978
 
      Total       -0.2137   0.1017   0.1061  -0.0947   0.1004  -0.0971   0.0974  -0.0978   0.0978  -0.0978
 

                   H11      C12      H13      C14      H15      C16      H17      H18   
      Nuclear      1.0000   6.0000   1.0000   6.0000   1.0000   6.0000   1.0000   1.0000
      Electronic  -0.9022  -6.0971  -0.9026  -6.0947  -0.8996  -6.2137  -0.8983  -0.8939
 
      Total        0.0978  -0.0971   0.0974  -0.0947   0.1004  -0.2137   0.1017   0.1061
--
 
 
      Natural Bond Order Analysis for root number:  1
 
++    Natural Bond Order analysis
      ---------------------------
      Based on LoProp computed density
      -------------------------------------------------------------------------------------
      Atom A       Atom B       Bond Order | Atom A       Atom B       Bond Order
        C1           C4             0.999  |   C6           H7             0.990
        C6           C8             1.891  |   C8           H9             0.990
        C10          C12            1.891  |   C8           C10            0.992
        C14          C16            0.999  |   C10          H11            0.990
        C1           H2             0.993  |   C12          H13            0.990
        C1           H3             0.993  |   C12          C14            0.992
        C4           H5             0.990  |   C14          H15            0.990
        C4           C6             0.992  |   C16          H17            0.993
        C16          H18            0.993  |
      -------------------------------------------------------------------------------------
      NBO located     16.000 core electrons.
      NBO located     37.337 electrons involved in   17 bonds.
      The remaining    4.663 electrons are to be considered as diffuse
--
 
--
 
 
  Input file to MOLDEN was generated!
 
      Canonical orbitals are written to the RASORB file
      Natural orbitals for root   1 are written to the RASORB.1 file
      Spin density orbitals for root   1 are written to the SPDORB.1 file
 
--- Stop Module:  rasscf at Mon Mar 26 16:53:01 2018 /rc=0 ---
--- Module rasscf spent 24 seconds 
*** 
--- Start Module: caspt2 at Mon Mar 26 16:53:02 2018 
 
()()()()()()()()()()()()()()()()()()()()()()()()()()()()()()()()()()()()()()()()()()()()()()()()()()

                                              &CASPT2

                       only a single process is used, running in SERIAL mode
                       available to each process: 5.0 GB of memory, 1 thread
()()()()()()()()()()()()()()()()()()()()()()()()()()()()()()()()()()()()()()()()()()()()()()()()()()
 
 Cholesky algorithm in CASPT2 =    1
 
 
++    Wave function specifications:
      -----------------------------
 
      Number of closed shell electrons          34
      Number of electrons in active shells       8
      Max number of holes in RAS1 space          0
      Max number of electrons in RAS3 space      0
      Number of inactive orbitals               17
      Number of active orbitals                  8
      Number of secondary orbitals              17
      Spin quantum number                      0.0
      State symmetry                             1
      Number of CSFs                             1
      Number of root(s) available                1
      Root passed to geometry opt.               1
      A file JOBMIX will be created.
      This is a CASSCF or RASSCF reference function
      This is a DMRG reference with exact 4-RDM, activated by 3RDM keyword in RASSCF
--
 
++    Orbital specifications:
      -----------------------
 
      Symmetry species                           1
                                                 a
      Frozen orbitals                            8
      Inactive orbitals                         17
      Active orbitals                            8
      Secondary orbitals                        17
      Deleted orbitals                           0
      Number of basis functions                 50
--
 
      Type of Fock operator: STANDARD
      Type of 0-order Hamiltonian: STANDARD WITH DEFAULT IPEA
        "IP-EA" denominator shift =      0.25
      The input orbitals and the CI vector will be transformed.
 
--------------------------------------------------------------------------------
 Estimated memory requirements:
  POLY3 :                   251527
  RHS:                      331040
  SIGMA :                   397968
  PRPCTL:                        0
 Available workspace:    562494842
 
++ CASPT2 computation    1
 
********************************************************************************
 Multi-State initialization phase begins for group   1
--------------------------------------------------------------------------------
 CHEMPS2> MKRPTORB assumes PSEUDOCANONICAL orbitals!
********************************************************************************
 Compute H0 matrices for state    1
--------------------------------------------------------------------------------
--------------------------------------------------------------------------------
 H0 matrices have been computed.
 
********************************************************************************
  CASPT2 EQUATION SOLUTION
--------------------------------------------------------------------------------
 
  Total nr of CASPT2 parameters:
   Before reduction:      193545
   After  reduction:      192984
 
 The contributions to the second order correlation energy in atomic units.
-----------------------------------------------------------------------------------------------------------------------------
  IT.      VJTU        VJTI        ATVX        AIVX        VJAI        BVAT        BJAT        BJAI        TOTAL       RNORM  
-----------------------------------------------------------------------------------------------------------------------------
-------------------------------------------------------------------------------------------------------------------
 
  FINAL CASPT2 RESULT:
 
      Reference energy:        -308.5683839436
      E2 (Non-variational):      -0.3256212900
      E2 (Variational):          -0.3256212900
      Total energy:            -308.8940052336
      Residual norm:              0.0000000001
      Reference weight:           0.88119
 
      Contributions to the CASPT2 correlation energy
      Active & Virtual Only:         -0.0016438765
      One Inactive Excited:          -0.1067723670
      Two Inactive Excited:          -0.2172050465
 
 
++ Denominators, etc.
----------------------------------------------------------------------------------------------------
 Report on small energy denominators, large coefficients, and large energy contributions.
CASE  SYMM ACTIVE-MIX  NON-ACTIVE INDICES          DENOMINATOR     RHS VALUE       COEFFICIENT     CONTRIBUTION
--
 
   (Skipping property calculation,
    use PROP keyword to activate)
--
 
  Total CASPT2 energies:
::    CASPT2 Root  1     Total energy:   -308.89400523
 
--- Stop Module:  caspt2 at Mon Mar 26 16:53:04 2018 /rc=0 ---
--- Stop Module:  auto at Mon Mar 26 16:53:04 2018 /rc=0 ---
--- Module auto spent 1 minute and 21 seconds 
