   License is going to expire in 45 days  on Thursday December 5th, 2019
   This copy of MOLCAS is licensed to  Quan Phung
                                                                       
                             ^^^                                       
                             ^^^          ++++  +++++  ++++++ +   ++   
                 ^^^        ^^^^^        ++  ++ ++  ++ ++     ++  ++   
                ^^^^^       ^^ ^^        ++  ++ ++  ++ ++     +++ ++   
                ^^ ^^      ^^   ^^       ++  ++ +++++  ++++   ++++++   
                ^^  ^^     ^^   ^^       ++  ++ ++     ++     ++ +++   
               ^^   ^  ^^^^  ^  ^^       ++  ++ ++     ++     ++  ++   
               ^^  ^   ^^^   ^^ ^^        ++++  ++     ++++++ ++   +   
               ^  ^^^   ^^  ^^^  ^^                                    
            ^^^   ^^^   ^   ^^^    ^^                                  
        ^^^^^^^  ^^^^^     ^^^^^   ^^^^^^                              
     ^^^^^^^^^   ^^^^^^^^^^^^^^^   ^^^^^^^^^                           
    ^^^^^^^^^^   ^^           ^^   ^^^    ^^^                          
    ^^^^^^^^^^       ^^**^^^        ^     ^^^                          
    ^^^^^^^^^^    ^^^^**^^^^^^^     ^  ^  ^^^                          
    ^^^^^^^^^^   **^^***********    ^  ^  ^^^                          
    ^^^^^^^^^   ^^***********^^^^   ^  ^  ^^^    ^^^^    ^^    ^^^^    
    ^^^^^^^^^   ^^^***********^^^   ^  ^  ^^^   ^^  ^^  ^^^^  ^^   ^   
    ^^^^^^^^^   ^^^^***********^^      ^  ^^^   ^      ^^  ^^ ^^       
    ^^^^^^^^     ***********^^**       ^  ^^^   ^      ^^  ^^  ^^^^    
    ^^^^^^        ^^^^^^^**^^^^        ^  ^^^   ^      ^^^^^^     ^^   
    ^^^     ^^^      ^^^**^^     ^     ^   ^^   ^^  ^^ ^^  ^^ ^   ^^   
          ^^^^^^^^^            ^^^^   ^^^        ^^^^  ^    ^  ^^^^    
     ^^^^^^^^^^^^^^^^^^^^^^^^^^^^^^^^^^^^^^^                           
        ^^^^^^^^^^^^^^^^^^^^^^^^^^^^^^^^^                              
            ^^^^^^^^^^^^^^^^^^^^^^^^^                                  
               ^^^^^^^^^^^^^^^^^^^        version                   
                   ^^^^^^^^^^^                                         
                       ^^^                tag adea471-dirty                      
                                              $Px$                     
                                                                       
 OpenMolcas is free software; you can redistribute it and/or modify it 
 under the terms of the GNU Lesser General Public License version 2.1. 
 OpenMolcas is distributed in the hope that it will be useful, but it  
 is provided "as is" and without any express or implied warranties.    
 For more details see the full text of the license in the file         
 LICENSE or in <http://www.gnu.org/licenses/>.                         
                                                                       
                 Copyright (C) The OpenMolcas Authors                  
           For the author list and the recommended citation,           
                   consult the file CONTRIBUTORS.md                    

configuration info
------------------
C Compiler ID: Intel
C flags: -std=gnu99
Fortran Compiler ID: Intel
Fortran flags: -fpp -i8 -r8 -heap-arrays
Definitions: _MOLCAS_;_HAVE_EXTRA_;_I8_;_LINUX_;_MOLCAS_MPP_;SCALAPACK;_MKL_
Parallel: ON (GA=OFF)


   -------------------------------------------------------------------
  |                                                                   
  |   Project         = polyene
  |   Submitted from  = /home/quan/molcas/dmrg/polyene/polyene/c6
  |   Scratch area    = /temp0/quan/polyene.work
  |   Save outputs to = WORKDIR
  |   Molcas          = /home/quan/source/private/molcas-extra/build-gradient
  |                                                                   
  |   Scratch area is NOT empty
  |                                                                   
  |      MOLCAS_PRINT = 2                   
  |      MOLCAS_NODES = node92              
  |     MOLCAS_NPROCS = 4                   
  |     MOLCAS_SOURCE = /home/quan/source/private/molcas-extra/build-gradient
  |       MOLCAS_TRAP = ON                  
  |       MOLCAS_DICE = 8                   
  |      MOLCAS_BLOCK = 8                   
  |                                                                   
   -------------------------------------------------------------------
--- Start Module: auto at Mon Oct 21 03:28:54 2019 

++ ---------   Input file   ---------

  &GATEWAY
    Coord
      14  
    C      1.193303       2.840277       0.000000
    C     -1.193303      -2.840277       0.000000
    H      0.266348       3.409549       0.000000
    H     -0.266348      -3.409549       0.000000
    H      2.116288       3.411780       0.000000
    H     -2.116288      -3.411780       0.000000
    C      1.193303       1.497204       0.000000
    C     -1.193303      -1.497204       0.000000
    H      2.145487       0.965551       0.000000
    H     -2.145487      -0.965551       0.000000
    C     -0.001876       0.676124       0.000000
    C      0.001876      -0.676124       0.000000
    H     -0.957738       1.202166       0.000000
    H      0.957738      -1.202166       0.000000
    Basis 
    ANO-RCC-MB
    GROUP 
    NOSYM
  &SEWARD
    Medium
  &SCF
  &RASSCF
    Spin 
      1
    Symmetry 
      1
    nActEl 
      6 0 0
    Inactive 
      19
    Ras2     
      6
    Iter 
      100 100
    LumOrb
  &CASPT2 
  &RASSCF
    Spin 
      1
    Symmetry 
      1
    nActEl 
      6 0 0
    Inactive 
      19
    Ras2     
      6
    Iter 
      100 100
    LumOrb
    CISO 
    CHEMPS2
    DMRG 
      1000
      3RDM
  &CASPT2 
    CHEMPS2

-- ----------------------------------

--- Start Module: gateway at Mon Oct 21 03:28:58 2019 
----------------------------------------------------------------------------------------------------
 DGA/MPI-2 Parallel Environment:    4 Molcas's processes are running on   1 node(s) x  4 cores each
----------------------------------------------------------------------------------------------------
 
()()()()()()()()()()()()()()()()()()()()()()()()()()()()()()()()()()()()()()()()()()()()()()()()()()

                                              &GATEWAY

             launched 4 MPI processes, running in PARALLEL mode (work-sharing enabled)
                        available to each process: 20 GB of memory, 1 thread
()()()()()()()()()()()()()()()()()()()()()()()()()()()()()()()()()()()()()()()()()()()()()()()()()()
 
 
++    Symmetry information:
      ---------------------
 
                    Character Table for C1 
 
                             E  
                    a        1  x, y, xy, Rz, z, xz, Ry, yz, Rx, I
--
 
 
++    Basis set information:
      ----------------------
 
 
      Basis set label: C.ANO-RCC...2S1P.
 
      Electronic valence basis set:
      ------------------
      Associated Effective Charge  6.000000 au
      Associated Actual Charge     6.000000 au
      Nuclear Model: Point charge
 
      Shell  nPrim  nBasis  Cartesian Spherical Contaminant
         s      14       2        X                  
         p       9       1        X                  
 
 
      Basis set label: H.ANO-RCC...1S.
 
      Electronic valence basis set:
      ------------------
      Associated Effective Charge  1.000000 au
      Associated Actual Charge     1.000000 au
      Nuclear Model: Point charge
 
      Shell  nPrim  nBasis  Cartesian Spherical Contaminant
         s       8       1        X                  
 
 
      Basis set label: C.ANO-RCC...2S1P.
 
      Electronic valence basis set:
      ------------------
      Associated Effective Charge  6.000000 au
      Associated Actual Charge     6.000000 au
      Nuclear Model: Point charge
 
      Shell  nPrim  nBasis  Cartesian Spherical Contaminant
         s      14       2        X                  
         p       9       1        X                  
 
 
      Basis set label: H.ANO-RCC...1S.
 
      Electronic valence basis set:
      ------------------
      Associated Effective Charge  1.000000 au
      Associated Actual Charge     1.000000 au
      Nuclear Model: Point charge
 
      Shell  nPrim  nBasis  Cartesian Spherical Contaminant
         s       8       1        X                  
 
 
      Basis set label: C.ANO-RCC...2S1P.
 
      Electronic valence basis set:
      ------------------
      Associated Effective Charge  6.000000 au
      Associated Actual Charge     6.000000 au
      Nuclear Model: Point charge
 
      Shell  nPrim  nBasis  Cartesian Spherical Contaminant
         s      14       2        X                  
         p       9       1        X                  
 
 
      Basis set label: H.ANO-RCC...1S.
 
      Electronic valence basis set:
      ------------------
      Associated Effective Charge  1.000000 au
      Associated Actual Charge     1.000000 au
      Nuclear Model: Point charge
 
      Shell  nPrim  nBasis  Cartesian Spherical Contaminant
         s       8       1        X                  
--
 
 
++    Molecular structure info:
      -------------------------
 
                    ************************************************ 
                    **** Cartesian Coordinates / Bohr, Angstrom **** 
                    ************************************************ 
 
     Center  Label                x              y              z                     x              y              z
        1      C1               2.255016       5.367346       0.000000              1.193303       2.840277       0.000000
        2      C2              -2.255016      -5.367346       0.000000             -1.193303      -2.840277       0.000000
        3      H3               0.503325       6.443114       0.000000              0.266348       3.409549       0.000000
        4      H4              -0.503325      -6.443114       0.000000             -0.266348      -3.409549       0.000000
        5      H5               3.999205       6.447330       0.000000              2.116288       3.411780       0.000000
        6      H6              -3.999205      -6.447330       0.000000             -2.116288      -3.411780       0.000000
        7      C7               2.255016       2.829306       0.000000              1.193303       1.497204       0.000000
        8      C8              -2.255016      -2.829306       0.000000             -1.193303      -1.497204       0.000000
        9      H9               4.054383       1.824627       0.000000              2.145487       0.965551       0.000000
       10      H10             -4.054383      -1.824627       0.000000             -2.145487      -0.965551       0.000000
       11      C11             -0.003545       1.277689       0.000000             -0.001876       0.676124       0.000000
       12      C12              0.003545      -1.277689       0.000000              0.001876      -0.676124       0.000000
       13      H13             -1.809863       2.271764       0.000000             -0.957738       1.202166       0.000000
       14      H14              1.809863      -2.271764       0.000000              0.957738      -1.202166       0.000000
 
                    *************************************** 
                    *    InterNuclear Distances / Bohr    * 
                    *************************************** 
 
               1 C1            2 C2            3 H3            4 H4            5 H5            6 H6    
    1 C1       0.000000
    2 C2      11.643624        0.000000
    3 H3       2.055650       12.128289        0.000000
    4 H4      12.128289        2.055650       12.925487        0.000000
    5 H5       2.051478       13.367940        3.495882       13.654168        0.000000
    6 H6      13.367940        2.051478       13.654168        3.495882       15.173885        0.000000
    7 C7       2.538040        9.355505        4.015972        9.673996        4.016503       11.187995
    8 C8       9.355505        2.538040        9.673996        4.015972       11.187995        4.016503
    9 H9       3.973484        9.567287        5.825842        9.440775        4.623032       11.544936
   10 H10      9.567287        3.973484        9.440775        5.825842       11.544936        4.623032
   11 C11      4.671872        7.016096        5.190234        7.736962        6.538134        8.697196
   12 C12      7.016096        4.671872        7.736962        5.190234        8.697196        6.538134
   13 H13      5.109389        7.652069        4.769800        8.812272        7.154062        8.989762
   14 H14      7.652069        5.109389        8.812272        4.769800        8.989762        7.154062
 
               7 C7            8 C8            9 H9           10 H10          11 C11          12 C12   
    7 C7       0.000000
    8 C8       7.236039        0.000000
    9 H9       2.060849        7.840127        0.000000
   10 H10      7.840127        2.060849        8.892083        0.000000
   11 C11      2.740184        4.683645        4.094621        5.102318        0.000000
   12 C12      4.683645        2.740184        5.102318        4.094621        2.555388        0.000000
   13 H13      4.102937        5.120457        5.881267        4.671006        2.061788        3.985859
   14 H14      5.120457        4.102937        4.671006        5.881267        3.985859        2.061788
 
              13 H13          14 H14   
   13 H13      0.000000
   14 H14      5.809136        0.000000
 
                    ******************************************* 
                    *    InterNuclear Distances / Angstrom    * 
                    ******************************************* 
 
               1 C1            2 C2            3 H3            4 H4            5 H5            6 H6    
    1 C1       0.000000
    2 C2       6.161541        0.000000
    3 H3       1.087803        6.418014        0.000000
    4 H4       6.418014        1.087803        6.839873        0.000000
    5 H5       1.085595        7.074009        1.849941        7.225475        0.000000
    6 H6       7.074009        1.085595        7.225475        1.849941        8.029674        0.000000
    7 C7       1.343073        4.950720        2.125161        5.119258        2.125442        5.920432
    8 C8       4.950720        1.343073        5.119258        2.125161        5.920432        2.125442
    9 H9       2.102677        5.062790        3.082903        4.995843        2.446403        6.109317
   10 H10      5.062790        2.102677        4.995843        3.082903        6.109317        2.446403
   11 C11      2.472248        3.712758        2.746554        4.094224        3.459831        4.602358
   12 C12      3.712758        2.472248        4.094224        2.746554        4.602358        3.459831
   13 H13      2.703772        4.049301        2.524069        4.663254        3.785767        4.757177
   14 H14      4.049301        2.703772        4.663254        2.524069        4.757177        3.785767
 
               7 C7            8 C8            9 H9           10 H10          11 C11          12 C12   
    7 C7       0.000000
    8 C8       3.829147        0.000000
    9 H9       1.090555        4.148817        0.000000
   10 H10      4.148817        1.090555        4.705488        0.000000
   11 C11      1.450043        2.478478        2.166780        2.700031        0.000000
   12 C12      2.478478        1.450043        2.700031        2.166780        1.352253        0.000000
   13 H13      2.171181        2.709629        3.112233        2.471790        1.091051        2.109226
   14 H14      2.709629        2.171181        2.471790        3.112233        2.109226        1.091051
 
              13 H13          14 H14   
   13 H13      0.000000
   14 H14      3.074063        0.000000
 
                    ************************************** 
                    *    Valence Bond Angles / Degree    * 
                    ************************************** 
                          Atom centers                 Phi
                      3 H3       1 C1       5 H5       116.68
                      3 H3       1 C1       7 C7       121.56
                      5 H5       1 C1       7 C7       121.77
                      4 H4       2 C2       6 H6       116.68
                      4 H4       2 C2       8 C8       121.56
                      6 H6       2 C2       8 C8       121.77
                      1 C1       7 C7       9 H9       119.18
                      1 C1       7 C7      11 C11      124.49
                      9 H9       7 C7      11 C11      116.33
                      2 C2       8 C8      10 H10      119.18
                      2 C2       8 C8      12 C12      124.49
                     10 H10      8 C8      12 C12      116.33
                      7 C7      11 C11     12 C12      124.33
                      7 C7      11 C11     13 H13      116.69
                     12 C12     11 C11     13 H13      118.98
                      8 C8      12 C12     11 C11      124.33
                      8 C8      12 C12     14 H14      116.69
                     11 C11     12 C12     14 H14      118.98
 
           ***************************************************************
           *              Valence Dihedral Angles / Degree               *
           ***************************************************************
                    Atom centers                       Phi1     Phi2     Theta 
           3 H3       1 C1       7 C7       9 H9        121.56   119.18  -180.00
           3 H3       1 C1       7 C7      11 C11       121.56   124.49     0.00
           5 H5       1 C1       7 C7       9 H9        121.77   119.18     0.00
           5 H5       1 C1       7 C7      11 C11       121.77   124.49  -180.00
           4 H4       2 C2       8 C8      10 H10       121.56   119.18  -180.00
           4 H4       2 C2       8 C8      12 C12       121.56   124.49     0.00
           6 H6       2 C2       8 C8      10 H10       121.77   119.18     0.00
           6 H6       2 C2       8 C8      12 C12       121.77   124.49  -180.00
           1 C1       7 C7      11 C11     12 C12       124.49   124.33  -180.00
           1 C1       7 C7      11 C11     13 H13       124.49   116.69     0.00
           9 H9       7 C7      11 C11     12 C12       116.33   124.33     0.00
           9 H9       7 C7      11 C11     13 H13       116.33   116.69  -180.00
           2 C2       8 C8      12 C12     11 C11       124.49   124.33  -180.00
           2 C2       8 C8      12 C12     14 H14       124.49   116.69     0.00
          10 H10      8 C8      12 C12     11 C11       116.33   124.33     0.00
          10 H10      8 C8      12 C12     14 H14       116.33   116.69  -180.00
           7 C7      11 C11     12 C12      8 C8        124.33   124.33  -180.00
           7 C7      11 C11     12 C12     14 H14       124.33   118.98     0.00
          13 H13     11 C11     12 C12     14 H14       118.98   118.98  -180.00
           8 C8      12 C12     11 C11     13 H13       124.33   118.98     0.00
--
 
 
            Nuclear Potential Energy            193.63210666 au
 
--- Stop Module:  gateway at Mon Oct 21 03:29:04 2019 /rc=0 ---
--- Module gateway spent 6 seconds 
--- Start Module: seward at Mon Oct 21 03:29:08 2019 
----------------------------------------------------------------------------------------------------
 DGA/MPI-2 Parallel Environment:    4 Molcas's processes are running on   1 node(s) x  4 cores each
----------------------------------------------------------------------------------------------------
 
()()()()()()()()()()()()()()()()()()()()()()()()()()()()()()()()()()()()()()()()()()()()()()()()()()

                                              &SEWARD

             launched 4 MPI processes, running in PARALLEL mode (work-sharing enabled)
                        available to each process: 20 GB of memory, 1 thread
()()()()()()()()()()()()()()()()()()()()()()()()()()()()()()()()()()()()()()()()()()()()()()()()()()
 
               SEWARD will generate:
                  Multipole Moment integrals up to order  2
                  Kinetic Energy integrals
                  Nuclear Attraction integrals (point charge)
                  One-Electron Hamiltonian integrals
                  Velocity integrals
                  Relativistic Douglas-Kroll-Hess integrals:
                    - Parametrization         : EXP
                    - DKH order of Hamiltonian: 2
                    - DKH order of Properties : 0
                         - multipole moment operators
                         - electric potential operators
                         - contact operators
                  Atomic mean-field integrals
                  Cholesky decomposed two-electron repulsion integrals
                   - CD Threshold:   0.10E-05
 
                   Integrals are discarded if absolute value <: 0.10E-39
                   Integral cutoff threshold is set to       <: 0.10E-39
 
            Nuclear Potential Energy            193.63210666 au
 
 
      Basis set specifications :
      Symmetry species         a  
      Basis functions           38
 
      Cholesky vectors         268
 
 
 
  Input file to MOLDEN was generated!
 
--- Stop Module:  seward at Mon Oct 21 03:29:15 2019 /rc=0 ---
--- Module seward spent 7 seconds 
*** 
--- Start Module: scf at Mon Oct 21 03:29:20 2019 
----------------------------------------------------------------------------------------------------
 DGA/MPI-2 Parallel Environment:    4 Molcas's processes are running on   1 node(s) x  4 cores each
----------------------------------------------------------------------------------------------------
 
()()()()()()()()()()()()()()()()()()()()()()()()()()()()()()()()()()()()()()()()()()()()()()()()()()

                                                &SCF

             launched 4 MPI processes, running in PARALLEL mode (work-sharing enabled)
                        available to each process: 20 GB of memory, 1 thread
()()()()()()()()()()()()()()()()()()()()()()()()()()()()()()()()()()()()()()()()()()()()()()()()()()
 
++    Input section:
      --------------
 
      Header of the integral files:
      
       Integrals generated by seward 4.2.0  , Mon Oct 21 03:29:11 2019
 
 
      Cartesian coordinates in Angstrom:
      -----------------------------------------------------
      No.  Label        X            Y            Z        
      -----------------------------------------------------
       1   C1         1.19330300   2.84027700   0.00000000
       2   C2        -1.19330300  -2.84027700   0.00000000
       3   H3         0.26634800   3.40954900   0.00000000
       4   H4        -0.26634800  -3.40954900   0.00000000
       5   H5         2.11628800   3.41178000   0.00000000
       6   H6        -2.11628800  -3.41178000   0.00000000
       7   C7         1.19330300   1.49720400   0.00000000
       8   C8        -1.19330300  -1.49720400   0.00000000
       9   H9         2.14548700   0.96555100   0.00000000
      10   H10       -2.14548700  -0.96555100   0.00000000
      11   C11       -0.00187600   0.67612400   0.00000000
      12   C12        0.00187600  -0.67612400   0.00000000
      13   H13       -0.95773800   1.20216600   0.00000000
      14   H14        0.95773800  -1.20216600   0.00000000
      -----------------------------------------------------
      Nuclear repulsion energy =  193.63210666
--
 
++    Orbital specifications:
      -----------------------
 
      Symmetry species               1
                                     a
      Frozen orbitals                0
      Occupied orbitals             22
      Secondary orbitals            16
      Deleted orbitals               0
      Total number of orbitals      38
      Number of basis functions     38
--
 
      Molecular charge                           0.000
 
++    Optimization specifications:
      ----------------------------
 
      SCF Algorithm: LK-Cholesky
      The actual AO density is used
      Number of density matrices in core                5
      Maximum number of NDDO SCF iterations           400
      Maximum number of HF SCF iterations             400
      Threshold for SCF energy change            0.10E-08
      Threshold for density matrix               0.10E-03
      Threshold for Fock matrix                  0.15E-03
      Threshold for linear dependence            0.10E-08
      Threshold at which DIIS is turned on       0.15E+00
      Threshold at which QNR/C2DIIS is turned on 0.75E-01
      Threshold for Norm(delta) (QNR/C2DIIS)     0.20E-04
      DIIS extrapolation of the SCF procedure
      All orbitals punched on: SCFORB
--
 
      Input vectors read from INPORB
      Orbital file label: *Guess orbitals
 
 
++ Convergence information
                                   SCF        iterations: Energy and convergence statistics
 
Iter     Tot. SCF        One-elec.       Two-elec.     Energy      Max Dij or  Max Fij      DNorm      TNorm      AccCon     Time
         Energy          Energy          Energy        Change      Delta Norm                                                in Sec.
   1  -231.513987506  -688.706994650   263.560900488   0.00E+00    0.18E+00*   0.78E-01*    0.84E+01   0.80E+02   None         0.
   2  -231.599295877  -691.799237378   266.567834845  -0.85E-01*   0.72E-01*   0.19E-01*    0.85E+01   0.80E+02   EDIIS        0.
   3  -231.602443441  -691.528151610   266.293601514  -0.31E-02*   0.31E-01*   0.87E-02*    0.85E+01   0.80E+02   c2DIIS       0.
   4  -231.603058940  -691.628036997   266.392871401  -0.62E-03*   0.84E-02*   0.35E-02*    0.85E+01   0.80E+02   QNRc2DIIS    0.
   5  -231.603138683  -691.592061726   266.356816387  -0.80E-04*   0.33E-02*   0.19E-02*    0.85E+01   0.80E+02   QNRc2DIIS    0.
   6  -231.603159601  -691.604186065   266.368919808  -0.21E-04*   0.11E-02*   0.38E-03*    0.85E+01   0.80E+02   QNRc2DIIS    0.
   7  -231.603161083  -691.605760843   266.370493104  -0.15E-05*   0.89E-04*   0.18E-04     0.85E+01   0.80E+02   QNRc2DIIS    0.
   8  -231.603161786  -691.605789267   266.370520824  -0.70E-06*   0.12E-04    0.30E-05     0.85E+01   0.80E+02   QNRc2DIIS    0.
   9  -231.603161781  -691.605803886   266.370535450   0.58E-08*   0.45E-05    0.12E-05     0.85E+01   0.80E+02   QNRc2DIIS    0.
  10  -231.603161792  -691.605806716   266.370538269  -0.11E-07*   0.19E-05    0.36E-06     0.85E+01   0.80E+02   QNRc2DIIS    0.
  11  -231.603161822  -691.605808928   266.370540450  -0.31E-07*   0.26E-06    0.91E-07     0.85E+01   0.80E+02   QNRc2DIIS    0.
  12  -231.603161823  -691.605809173   266.370540694  -0.12E-08*   0.62E-07    0.20E-07     0.85E+01   0.80E+02   QNRc2DIIS    0.
  13  -231.603161826  -691.605809193   266.370540711  -0.21E-08*   0.15E-07    0.11E-07     0.85E+01   0.80E+02   QNRc2DIIS    0.
  14  -231.603161825  -691.605809197   266.370540716   0.27E-09    0.48E-08    0.37E-08     0.85E+01   0.80E+02   QNRc2DIIS    0.
 
       Convergence after 14 Macro Iterations
--
 
 *****************************************************************************************************************************
 *                                                                                                                           *
 *                                             SCF/KS-DFT Program, Final results                                             *
 *                                                                                                                           *
 *                                                                                                                           *
 *                                                                                                                           *
 *                                                       Final Results                                                       *
 *                                                                                                                           *
 *****************************************************************************************************************************
 
::    Total SCF energy                               -231.6031618253
      One-electron energy                            -691.6058091972
      Two-electron energy                             266.3705407160
      Nuclear repulsion energy                        193.6321066558
      Kinetic energy (interpolated)                   230.4675104348
      Virial theorem                                    1.0049275986
      Total spin, S(S+1)                                0.0000000000
      Total spin, S                                     0.0000000000
      Max non-diagonal density matrix element           0.0000000049
      Max non-diagonal Fock matrix element              0.0000000006
 
 
      All orbitals with orbital energies smaller than  E(LUMO)+0.5 are printed
 
++    Molecular orbitals:
      -------------------
 
      Title: SCF orbitals

      Molecular orbitals for symmetry species 1: a  
 
          Orbital        1         2         3         4         5         6         7         8         9        10    
          Energy      -11.3596  -11.3596  -11.3551  -11.3537  -11.3379  -11.3379   -1.1458   -1.0939   -1.0205   -0.8830
          Occ. No.      2.0000    2.0000    2.0000    2.0000    2.0000    2.0000    2.0000    2.0000    2.0000    2.0000
 
        1 C1    1s      0.0262    0.0210   -0.0032    0.0028    0.9007   -0.4336   -0.0187   -0.0318    0.0322    0.0234
        2 C1    2s     -0.0004   -0.0003   -0.0001    0.0000    0.0005   -0.0002    0.1523    0.2779   -0.3155   -0.3178
        3 C1    2px     0.0000    0.0000    0.0001   -0.0001    0.0000    0.0000   -0.0026   -0.0026   -0.0026   -0.0186
        4 C1    2py     0.0001    0.0001    0.0002   -0.0001   -0.0003    0.0002   -0.0563   -0.0890    0.0694   -0.0433
        5 C1    2pz    -0.0000    0.0000    0.0000   -0.0000   -0.0000   -0.0000    0.0000    0.0000   -0.0000    0.0000
        6 C2    1s      0.0209   -0.0263   -0.0032   -0.0028    0.4336    0.9007   -0.0187    0.0318    0.0322   -0.0234
        7 C2    2s     -0.0004    0.0004   -0.0001   -0.0000    0.0002    0.0005    0.1523   -0.2779   -0.3155    0.3178
        8 C2    2px    -0.0000    0.0000   -0.0001   -0.0001   -0.0000   -0.0000    0.0026   -0.0026    0.0026   -0.0186
        9 C2    2py    -0.0001    0.0001   -0.0002   -0.0001    0.0002    0.0003    0.0563   -0.0890   -0.0694   -0.0433
       10 C2    2pz     0.0000   -0.0000   -0.0000    0.0000   -0.0000   -0.0000    0.0000   -0.0000   -0.0000   -0.0000
       11 H3    1s     -0.0003   -0.0002   -0.0001    0.0001   -0.0007    0.0003    0.0207    0.0462   -0.0673   -0.1068
       12 H4    1s     -0.0002    0.0003   -0.0001   -0.0001   -0.0003   -0.0007    0.0207   -0.0462   -0.0673    0.1068
       13 H5    1s     -0.0003   -0.0002   -0.0001    0.0000   -0.0007    0.0004    0.0210    0.0458   -0.0679   -0.1192
       14 H6    1s     -0.0002    0.0003   -0.0001   -0.0000   -0.0004   -0.0007    0.0210   -0.0458   -0.0679    0.1192
       15 C7    1s      0.7796    0.6215   -0.0545    0.0458   -0.0310    0.0149   -0.0318   -0.0391    0.0194   -0.0114
       16 C7    2s      0.0002    0.0002   -0.0005    0.0003   -0.0006    0.0003    0.2617    0.3358   -0.1759    0.1525
       17 C7    2px    -0.0001   -0.0001    0.0001   -0.0000   -0.0000    0.0000   -0.0495   -0.0267   -0.0492   -0.0988
       18 C7    2py     0.0002    0.0001    0.0003    0.0001   -0.0001    0.0001    0.0054    0.0622   -0.1416   -0.1953
       19 C7    2pz     0.0000    0.0000   -0.0000    0.0000    0.0000   -0.0000    0.0000    0.0000   -0.0000    0.0000
       20 C8    1s      0.6208   -0.7801   -0.0545   -0.0458   -0.0149   -0.0310   -0.0318    0.0391    0.0194    0.0114
       21 C8    2s      0.0001   -0.0002   -0.0005   -0.0003   -0.0003   -0.0006    0.2617   -0.3358   -0.1759   -0.1525
       22 C8    2px     0.0000   -0.0001   -0.0001   -0.0000   -0.0000    0.0000    0.0495   -0.0267    0.0492   -0.0988
       23 C8    2py    -0.0002    0.0002   -0.0003    0.0001    0.0001    0.0001   -0.0054    0.0622    0.1416   -0.1953
       24 C8    2pz    -0.0000    0.0000   -0.0000   -0.0000   -0.0000   -0.0000    0.0000   -0.0000   -0.0000   -0.0000
       25 H9    1s     -0.0006   -0.0005   -0.0003    0.0001   -0.0003    0.0001    0.0354    0.0567   -0.0377    0.0539
       26 H10   1s     -0.0005    0.0006   -0.0003   -0.0001   -0.0002   -0.0003    0.0354   -0.0567   -0.0377   -0.0539
       27 C11   1s      0.0590    0.0392    0.7049   -0.7060    0.0017   -0.0008   -0.0420   -0.0144   -0.0295   -0.0210
       28 C11   2s     -0.0006   -0.0002   -0.0001   -0.0007   -0.0001   -0.0000    0.3383    0.1286    0.2704    0.2624
       29 C11   2px     0.0000   -0.0002    0.0001   -0.0001   -0.0001    0.0000    0.0381    0.0580   -0.0270    0.0789
       30 C11   2py    -0.0000   -0.0003   -0.0001    0.0002   -0.0002    0.0002   -0.0541    0.0631   -0.1229    0.1334
       31 C11   2pz     0.0000   -0.0000   -0.0000    0.0000   -0.0000   -0.0000    0.0000    0.0000   -0.0000   -0.0000
       32 C12   1s      0.0488   -0.0514    0.7049    0.7059    0.0009    0.0017   -0.0420    0.0144   -0.0295    0.0210
       33 C12   2s     -0.0005    0.0003   -0.0001    0.0007   -0.0001   -0.0000    0.3383   -0.1286    0.2704   -0.2624
       34 C12   2px    -0.0000   -0.0002   -0.0001   -0.0001    0.0001    0.0001   -0.0381    0.0580    0.0270    0.0789
       35 C12   2py    -0.0000   -0.0003    0.0001    0.0002    0.0001    0.0003    0.0541    0.0631    0.1229    0.1334
       36 C12   2pz    -0.0000   -0.0000    0.0000   -0.0000    0.0000    0.0000    0.0000   -0.0000   -0.0000   -0.0000
       37 H13   1s     -0.0004   -0.0001   -0.0007    0.0003   -0.0002    0.0001    0.0468    0.0212    0.0597    0.0864
       38 H14   1s     -0.0004    0.0002   -0.0007   -0.0003   -0.0001   -0.0001    0.0468   -0.0212    0.0597   -0.0864
 
          Orbital       11        12        13        14        15        16        17        18        19        20    
          Energy       -0.7934   -0.7866   -0.7021   -0.6739   -0.6374   -0.6092   -0.5803   -0.5490   -0.5281   -0.5257
          Occ. No.      2.0000    2.0000    2.0000    2.0000    2.0000    2.0000    2.0000    2.0000    2.0000    2.0000
 
        1 C1    1s     -0.0124    0.0046    0.0010    0.0044   -0.0059    0.0090    0.0029   -0.0026   -0.0011    0.0000
        2 C1    2s      0.2636   -0.0850    0.0476    0.0834   -0.0201    0.0060   -0.0364    0.0259   -0.0204    0.0000
        3 C1    2px    -0.0228    0.0711    0.2141   -0.1434   -0.2658   -0.1607    0.2594    0.2964   -0.2121   -0.0000
        4 C1    2py     0.1796   -0.0767    0.0828    0.2614   -0.2698    0.3156    0.1553   -0.0977    0.0054    0.0000
        5 C1    2pz    -0.0000   -0.0000   -0.0000    0.0000    0.0000    0.0000   -0.0000   -0.0000    0.0000    0.2139
        6 C2    1s     -0.0124   -0.0046    0.0010   -0.0044    0.0059    0.0090    0.0029    0.0026   -0.0011   -0.0000
        7 C2    2s      0.2636    0.0850    0.0476   -0.0834    0.0201    0.0060   -0.0364   -0.0259   -0.0204   -0.0000
        8 C2    2px     0.0228    0.0711   -0.2141   -0.1434   -0.2658    0.1607   -0.2594    0.2964    0.2121   -0.0000
        9 C2    2py    -0.1796   -0.0767   -0.0828    0.2614   -0.2698   -0.3156   -0.1553   -0.0977   -0.0054    0.0000
       10 C2    2pz    -0.0000    0.0000   -0.0000   -0.0000    0.0000    0.0000    0.0000    0.0000    0.0000    0.2139
       11 H3    1s      0.1547   -0.0825   -0.0659    0.1993    0.0523    0.2220   -0.1274   -0.2552    0.1709    0.0000
       12 H4    1s      0.1547    0.0825   -0.0659   -0.1993   -0.0523    0.2220   -0.1274    0.2552    0.1709   -0.0000
       13 H5    1s      0.1369   -0.0233    0.1543    0.0441   -0.2619    0.0159    0.2208    0.1933   -0.1748   -0.0000
       14 H6    1s      0.1369    0.0233    0.1543   -0.0441    0.2619    0.0159    0.2208   -0.1933   -0.1748    0.0000
       15 C7    1s      0.0184   -0.0095    0.0051    0.0037   -0.0081    0.0044    0.0016   -0.0049    0.0017    0.0000
       16 C7    2s     -0.3016    0.1705   -0.0006   -0.0740    0.0347    0.0669   -0.0249   -0.0421   -0.0488   -0.0000
       17 C7    2px    -0.0660    0.1657    0.2651   -0.1809   -0.1324   -0.0289   -0.0221   -0.2839    0.3219    0.0000
       18 C7    2py     0.0958   -0.0563   -0.0687   -0.2129    0.2453   -0.3618   -0.1433    0.1198    0.0241   -0.0000
       19 C7    2pz    -0.0000    0.0000   -0.0000   -0.0000    0.0000    0.0000    0.0000    0.0000   -0.0000    0.3138
       20 C8    1s      0.0184    0.0095    0.0051   -0.0037    0.0081    0.0044    0.0016    0.0049    0.0017    0.0000
       21 C8    2s     -0.3016   -0.1705   -0.0006    0.0740   -0.0347    0.0669   -0.0249    0.0421   -0.0488   -0.0000
       22 C8    2px     0.0660    0.1657   -0.2651   -0.1809   -0.1324    0.0289    0.0220   -0.2839   -0.3219    0.0000
       23 C8    2py    -0.0958   -0.0563    0.0687   -0.2129    0.2453    0.3618    0.1433    0.1198   -0.0241   -0.0000
       24 C8    2pz    -0.0000    0.0000   -0.0000   -0.0000    0.0000    0.0000    0.0000    0.0000    0.0000    0.3138
       25 H9    1s     -0.1671    0.1505    0.1528   -0.0670   -0.1363    0.1396    0.0309   -0.2843    0.2320    0.0000
       26 H10   1s     -0.1671   -0.1505    0.1528    0.0670    0.1363    0.1396    0.0309    0.2843    0.2320   -0.0000
       27 C11   1s     -0.0086    0.0129   -0.0046   -0.0049    0.0021   -0.0011    0.0081   -0.0025    0.0017   -0.0000
       28 C11   2s      0.1146   -0.2370   -0.0177    0.0078   -0.1449   -0.0624    0.0333    0.0470   -0.0544   -0.0000
       29 C11   2px    -0.1176    0.1917   -0.0052    0.2784    0.0777    0.2087   -0.1232    0.1975   -0.3336   -0.0000
       30 C11   2py    -0.1532   -0.1214   -0.3023    0.0104   -0.0487    0.1049    0.4021    0.0419    0.0108   -0.0000
       31 C11   2pz     0.0000    0.0000    0.0000   -0.0000   -0.0000    0.0000    0.0000    0.0000   -0.0000    0.4086
       32 C12   1s     -0.0086   -0.0129   -0.0046    0.0049   -0.0021   -0.0011    0.0081    0.0025    0.0017    0.0000
       33 C12   2s      0.1146    0.2370   -0.0177   -0.0078    0.1449   -0.0624    0.0333   -0.0470   -0.0544    0.0000
       34 C12   2px     0.1176    0.1917    0.0052    0.2784    0.0777   -0.2087    0.1232    0.1975    0.3336   -0.0000
       35 C12   2py     0.1532   -0.1214    0.3023    0.0104   -0.0487   -0.1049   -0.4021    0.0419   -0.0108    0.0000
       36 C12   2pz     0.0000    0.0000   -0.0000   -0.0000    0.0000    0.0000    0.0000    0.0000    0.0000    0.4086
       37 H13   1s      0.0597   -0.2038   -0.0893   -0.1429   -0.1293   -0.1218    0.2533   -0.1030    0.2626    0.0000
       38 H14   1s      0.0597    0.2038   -0.0893    0.1429    0.1293   -0.1218    0.2533    0.1030    0.2626   -0.0000
 
          Orbital       21        22        23        24        25        26        27        28        29        30    
          Energy       -0.4545   -0.3451    0.0699    0.2080    0.3082    0.4360    0.5036    0.5154    0.5269    0.5303
          Occ. No.      2.0000    2.0000    0.0000    0.0000    0.0000    0.0000    0.0000    0.0000    0.0000    0.0000
 
        1 C1    1s     -0.0000   -0.0000    0.0000   -0.0000   -0.0000    0.0213   -0.0061   -0.0954   -0.1150   -0.0136
        2 C1    2s     -0.0000   -0.0000    0.0000   -0.0000   -0.0000    0.1815   -0.0296   -0.7689   -0.9034   -0.1698
        3 C1    2px    -0.0000   -0.0000    0.0000   -0.0000   -0.0000    0.3358   -0.5041   -0.0935    0.1049   -0.0516
        4 C1    2py     0.0000    0.0000   -0.0000    0.0000    0.0000   -0.0896   -0.1038   -0.3339   -0.2691    0.2023
        5 C1    2pz    -0.4006   -0.4360    0.5271   -0.5641   -0.3399   -0.0000    0.0000    0.0000    0.0000    0.0000
        6 C2    1s     -0.0000   -0.0000    0.0000   -0.0000    0.0000   -0.0213   -0.0061    0.0954   -0.1150    0.0136
        7 C2    2s      0.0000    0.0000   -0.0000   -0.0000    0.0000   -0.1815   -0.0295    0.7689   -0.9034    0.1696
        8 C2    2px    -0.0000    0.0000   -0.0000    0.0000    0.0000    0.3358    0.5041   -0.0935   -0.1049   -0.0516
        9 C2    2py     0.0000    0.0000   -0.0000    0.0000    0.0000   -0.0896    0.1038   -0.3339    0.2691    0.2024
       10 C2    2pz     0.4006   -0.4360   -0.5271   -0.5641    0.3399    0.0000   -0.0000   -0.0000    0.0000    0.0000
       11 H3    1s      0.0000    0.0000   -0.0000    0.0000    0.0000    0.2980   -0.4338    0.4180    0.6739   -0.0317
       12 H4    1s     -0.0000    0.0000    0.0000   -0.0000   -0.0000   -0.2980   -0.4338   -0.4180    0.6739    0.0318
       13 H5    1s     -0.0000   -0.0000   -0.0000    0.0000    0.0000   -0.4006    0.5302    0.6347    0.4579    0.0840
       14 H6    1s      0.0000    0.0000   -0.0000    0.0000    0.0000    0.4006    0.5302   -0.6347    0.4580   -0.0839
       15 C7    1s      0.0000    0.0000   -0.0000    0.0000    0.0000   -0.0132   -0.0444   -0.0195   -0.0211    0.1295
       16 C7    2s      0.0000    0.0000   -0.0000    0.0000    0.0000   -0.1078   -0.3532   -0.0750   -0.1379    1.0558
       17 C7    2px     0.0000    0.0000   -0.0000    0.0000   -0.0000    0.4939   -0.4967   -0.1054    0.0900   -0.0410
       18 C7    2py     0.0000    0.0000   -0.0000    0.0000    0.0000   -0.0641    0.1259    0.1607    0.3424   -0.3438
       19 C7    2pz    -0.4401   -0.2791   -0.3135    0.6486    0.5494    0.0000   -0.0000   -0.0000   -0.0000   -0.0000
       20 C8    1s     -0.0000   -0.0000    0.0000   -0.0000   -0.0000    0.0132   -0.0444    0.0195   -0.0211   -0.1295
       21 C8    2s      0.0000    0.0000   -0.0000    0.0000   -0.0000    0.1078   -0.3531    0.0750   -0.1377   -1.0558
       22 C8    2px     0.0000    0.0000   -0.0000    0.0000    0.0000    0.4939    0.4967   -0.1054   -0.0900   -0.0410
       23 C8    2py     0.0000    0.0000   -0.0000    0.0000    0.0000   -0.0641   -0.1259    0.1607   -0.3424   -0.3439
       24 C8    2pz     0.4401   -0.2791    0.3135    0.6486   -0.5494   -0.0000    0.0000    0.0000   -0.0000    0.0000
       25 H9    1s      0.0000    0.0000   -0.0000   -0.0000    0.0000   -0.4975    0.7013    0.1484    0.1470   -0.6071
       26 H10   1s     -0.0000    0.0000   -0.0000    0.0000    0.0000    0.4975    0.7012   -0.1484    0.1469    0.6071
       27 C11   1s      0.0000    0.0000   -0.0000    0.0000    0.0000    0.0194   -0.0252   -0.0697    0.0554   -0.0594
       28 C11   2s      0.0000    0.0000   -0.0000    0.0000   -0.0000    0.1523   -0.1683   -0.5788    0.4197   -0.5651
       29 C11   2px     0.0000    0.0000   -0.0000    0.0000    0.0000    0.4985   -0.1010    0.2924   -0.0190   -0.3237
       30 C11   2py     0.0000    0.0000   -0.0000   -0.0000   -0.0000   -0.1578   -0.1438    0.0884    0.2095   -0.2742
       31 C11   2pz    -0.1217    0.4483   -0.5178   -0.2206   -0.6993   -0.0000    0.0000    0.0000    0.0000    0.0000
       32 C12   1s     -0.0000   -0.0000    0.0000   -0.0000   -0.0000   -0.0194   -0.0252    0.0697    0.0554    0.0594
       33 C12   2s     -0.0000   -0.0000    0.0000   -0.0000   -0.0000   -0.1523   -0.1682    0.5788    0.4195    0.5652
       34 C12   2px    -0.0000   -0.0000    0.0000   -0.0000   -0.0000    0.4985    0.1010    0.2924    0.0190   -0.3237
       35 C12   2py    -0.0000   -0.0000    0.0000   -0.0000   -0.0000   -0.1578    0.1438    0.0884   -0.2095   -0.2742
       36 C12   2pz     0.1217    0.4483    0.5178   -0.2205    0.6993    0.0000   -0.0000   -0.0000    0.0000   -0.0000
       37 H13   1s      0.0000   -0.0000   -0.0000    0.0000    0.0000    0.5398   -0.0314    0.4826   -0.3546    0.1374
       38 H14   1s      0.0000    0.0000   -0.0000    0.0000    0.0000   -0.5398   -0.0314   -0.4826   -0.3545   -0.1375
 
          Orbital       31        32    
          Energy        0.5469    0.5497
          Occ. No.      0.0000    0.0000
 
        1 C1    1s     -0.0513   -0.0806
        2 C1    2s     -0.4490   -0.6418
        3 C1    2px    -0.0931    0.3219
        4 C1    2py    -0.2411   -0.1074
        5 C1    2pz     0.0000    0.0000
        6 C2    1s     -0.0513    0.0806
        7 C2    2s     -0.4490    0.6418
        8 C2    2px     0.0931    0.3219
        9 C2    2py     0.2410   -0.1074
       10 C2    2pz     0.0000    0.0000
       11 H3    1s      0.2497    0.6880
       12 H4    1s      0.2497   -0.6880
       13 H5    1s      0.4596    0.0720
       14 H6    1s      0.4596   -0.0720
       15 C7    1s      0.0552    0.0292
       16 C7    2s      0.5042    0.2290
       17 C7    2px    -0.1064    0.2042
       18 C7    2py    -0.2293    0.1477
       19 C7    2pz    -0.0000   -0.0000
       20 C8    1s      0.0552   -0.0292
       21 C8    2s      0.5043   -0.2291
       22 C8    2px     0.1064    0.2042
       23 C8    2py     0.2293    0.1477
       24 C8    2pz    -0.0000   -0.0000
       25 H9    1s     -0.3793   -0.2617
       26 H10   1s     -0.3793    0.2618
       27 C11   1s     -0.0941    0.0759
       28 C11   2s     -0.7215    0.6182
       29 C11   2px     0.1010   -0.2647
       30 C11   2py    -0.4323    0.0934
       31 C11   2pz     0.0000    0.0000
       32 C12   1s     -0.0941   -0.0759
       33 C12   2s     -0.7216   -0.6182
       34 C12   2px    -0.1010   -0.2647
       35 C12   2py     0.4323    0.0934
       36 C12   2pz     0.0000    0.0000
       37 H13   1s      0.5972   -0.6490
       38 H14   1s      0.5973    0.6490
--
 
 
++    Molecular charges:
      ------------------
 
      Mulliken charges per centre and basis function type
      ---------------------------------------------------
 
             C1      C2      H3      H4      H5      H6      C7      C8      H9      H10     C11     C12   
      1s     2.0003  2.0003  0.8428  0.8428  0.8368  0.8368  2.0002  2.0002  0.8384  0.8384  2.0002  2.0002
      2s     1.1769  1.1769  0.0000  0.0000  0.0000  0.0000  1.1206  1.1206  0.0000  0.0000  1.1188  1.1188
      2px    1.1087  1.1087  0.0000  0.0000  0.0000  0.0000  1.0372  1.0372  0.0000  0.0000  1.0362  1.0362
      2pz    1.0106  1.0106  0.0000  0.0000  0.0000  0.0000  0.9916  0.9916  0.0000  0.0000  0.9978  0.9978
      2py    1.0245  1.0245  0.0000  0.0000  0.0000  0.0000  1.0125  1.0125  0.0000  0.0000  1.0025  1.0025
      Total  6.3210  6.3210  0.8428  0.8428  0.8368  0.8368  6.1621  6.1621  0.8384  0.8384  6.1555  6.1555
 
      N-E   -0.3210 -0.3210  0.1572  0.1572  0.1632  0.1632 -0.1621 -0.1621  0.1616  0.1616 -0.1555 -0.1555
 
             H13     H14   
      1s     0.8433  0.8433
      2s     0.0000  0.0000
      2px    0.0000  0.0000
      2pz    0.0000  0.0000
      2py    0.0000  0.0000
      Total  0.8433  0.8433
 
      N-E    0.1567  0.1567
 
      Total electronic charge=   44.000000
 
      Total            charge=   -0.000000
--
 
 
  Input file to MOLDEN was generated!
 
 
++    Static properties:
      ------------------
 
 
      LoProp Charges per center
 

                   C1       C2       H3       H4       H5       H6       C7       C8       H9       H10   
      Nuclear      6.0000   6.0000   1.0000   1.0000   1.0000   1.0000   6.0000   6.0000   1.0000   1.0000
      Electronic  -6.2187  -6.2187  -0.8975  -0.8975  -0.8929  -0.8929  -6.0938  -6.0938  -0.8975  -0.8975
 
      Total       -0.2187  -0.2187   0.1025   0.1025   0.1071   0.1071  -0.0938  -0.0938   0.1025   0.1025
 

                   C11      C12      H13      H14   
      Nuclear      6.0000   6.0000   1.0000   1.0000
      Electronic  -6.0990  -6.0990  -0.9005  -0.9005
 
      Total       -0.0990  -0.0990   0.0995   0.0995
--
 
 
++    Natural Bond Order analysis
      ---------------------------
      Based on LoProp computed density
      -------------------------------------------------------------------------------------
      Atom A       Atom B       Bond Order | Atom A       Atom B       Bond Order
        C1           C7             0.999  |   C2           H6             0.993
        C2           C8             0.999  |   C7           H9             0.990
        C11          C12            1.948  |   C7           C11            0.992
        C1           H3             0.993  |   C8           H10            0.990
        C1           H5             0.993  |   C8           C12            0.992
        C2           H4             0.993  |   C11          H13            0.990
        C12          H14            0.990  |
      -------------------------------------------------------------------------------------
      NBO located     12.000 core electrons.
      NBO located     27.725 electrons involved in   13 bonds.
      The remaining    4.275 electrons are to be considered as diffuse
--
 
 
++    Molecular properties:
      ---------------------
 
      Charge (e):
                      =   -0.0000
      Dipole Moment (Debye):
      Origin of the operator (Ang)=    0.0000    0.0000    0.0000
                   X=  2.1574E-06               Y=  9.5432E-06               Z=  4.8222E-13           Total=  9.7840E-06
      Quadrupole Moment (Debye*Ang):
      Origin of the operator (Ang)=    0.0000    0.0000    0.0000
                  XX= -3.9271E+01              XY= -5.4053E-01              XZ=  8.5180E-13              YY= -4.0045E+01
                  YZ=  8.1931E-13              ZZ= -4.5934E+01
      In traceless form (Debye*Ang)
                  XX=  3.7186E+00              XY= -8.1080E-01              XZ=  1.2777E-12              YY=  2.5580E+00
                  YZ=  1.2290E-12              ZZ= -6.2766E+00
--
 
 
  Input file to MOLDEN was generated!
 
 ###############################################################################
 ###############################################################################
 ###                                                                         ###
 ###                                                                         ###
 ###    RunFile label nBas                                                   ###
 ###    was used       80 times                                              ###
 ###                                                                         ###
 ###                                                                         ###
 ###############################################################################
 ###############################################################################
--- Stop Module:  scf at Mon Oct 21 03:29:25 2019 /rc=0 ---
*** 
--- Start Module: rasscf at Mon Oct 21 03:29:30 2019 
----------------------------------------------------------------------------------------------------
 DGA/MPI-2 Parallel Environment:    4 Molcas's processes are running on   1 node(s) x  4 cores each
----------------------------------------------------------------------------------------------------
 
()()()()()()()()()()()()()()()()()()()()()()()()()()()()()()()()()()()()()()()()()()()()()()()()()()

                                              &RASSCF

             launched 4 MPI processes, running in PARALLEL mode (work-sharing enabled)
                        available to each process: 20 GB of memory, 1 thread
()()()()()()()()()()()()()()()()()()()()()()()()()()()()()()()()()()()()()()()()()()()()()()()()()()
 
 
      Header of the ONEINT file:
      --------------------------
      
      Integrals generated by seward 4.2.0  , Mon Oct 21 03:29:11 2019
 
 
      OrdInt status: non-squared
 
 
      Cartesian coordinates in Angstrom:
      -----------------------------------------------------
      No.  Label        X            Y            Z        
      -----------------------------------------------------
       1   C1         1.19330300   2.84027700   0.00000000
       2   C2        -1.19330300  -2.84027700   0.00000000
       3   H3         0.26634800   3.40954900   0.00000000
       4   H4        -0.26634800  -3.40954900   0.00000000
       5   H5         2.11628800   3.41178000   0.00000000
       6   H6        -2.11628800  -3.41178000   0.00000000
       7   C7         1.19330300   1.49720400   0.00000000
       8   C8        -1.19330300  -1.49720400   0.00000000
       9   H9         2.14548700   0.96555100   0.00000000
      10   H10       -2.14548700  -0.96555100   0.00000000
      11   C11       -0.00187600   0.67612400   0.00000000
      12   C12        0.00187600  -0.67612400   0.00000000
      13   H13       -0.95773800   1.20216600   0.00000000
      14   H14        0.95773800  -1.20216600   0.00000000
      -----------------------------------------------------
      Nuclear repulsion energy =  193.63210666
 
++    Wave function specifications:
      -----------------------------
 
      Number of closed shell electrons          38
      Number of electrons in active shells       6
      Max number of holes in RAS1 space          0
      Max nr of electrons in RAS3 space          0
      Number of inactive orbitals               19
      Number of active orbitals                  6
      Number of secondary orbitals              13
      Spin quantum number                      0.0
      State symmetry                             1
--
 
++    Orbital specifications:
      -----------------------
 
      Symmetry species                           1
                                                 a
      Frozen orbitals                            0
      Inactive orbitals                         19
      Active orbitals                            6
      RAS1 orbitals                              0
      RAS2 orbitals                              6
      RAS3 orbitals                              0
      Secondary orbitals                        13
      Deleted orbitals                           0
      Number of basis functions                 38
--
 
++    CI expansion specifications:
      ----------------------------
 
      Number of CSFs                           175
      Number of determinants                   210
      Number of root(s) required                 1
      Root chosen for geometry opt.              1
      CI root used                               1
         
      highest root included in the CI            1
      max. size of the explicit Hamiltonian    175
--
 
++    Optimization specifications:
      ----------------------------
 
      RASSCF algorithm: LK Cholesky
      Maximum number of macro iterations       100
      Maximum number of SX iterations          100
      Threshold for RASSCF energy            0.100E-07
      Threshold for max MO rotation          0.100E+00
      Threshold for max BLB element          0.100E-03
      Level shift parameter                  0.500E+00
      Make Quasi-Newton update
--
 
      The MO-coefficients are taken from the file:
      INPORB                                                                                                                          
      Title: SCF orbitals                                                                  
 
      Total molecular charge    0.00
 
      ************************************************************************************************************************
      *                                                                                                                      *
      *                                            Wave function control section                                             *
      *                                                                                                                      *
      ************************************************************************************************************************
 
 
                                         RASSCF iterations: Energy and convergence statistics
                                         ----------------------------------------------------
 
      Iter CI   SX   CI       RASSCF       Energy    max ROT     max BLB   max BLB  Level Ln srch  Step   QN   Walltime
          iter iter root      energy       change     param      element    value   shift minimum  type update hh:mm:ss
 Nr of preliminary CI iterations:   1
        1   1    3    1  -231.70869161    0.00E+00  -0.78E-03   10  38 1  0.22E-02*  0.00   0.00    SX    NO    0:00:00
        2   1    3    1  -231.70871402   -0.22E-04*  0.12E-03   10  38 1  0.46E-03*  0.00   0.00    SX    NO    0:00:00
        3   1    3    1  -231.70871426   -0.24E-06* -0.63E-04   16  37 1 -0.19E-03*  0.01   0.00    SX    NO    0:00:00
        4   1    2    1  -231.70871452   -0.26E-06*  0.88E-05   15  34 1 -0.24E-04   0.01   0.00    SX    NO    0:00:00
        5   1    2    1  -231.70871454   -0.27E-07* -0.87E-05   16  37 1 -0.37E-04   0.01   0.98    QN   YES    0:00:00
        6   1    2    1  -231.70871455   -0.42E-08  -0.52E-05   15  34 1  0.22E-04   0.01   1.05    QN   YES    0:00:00
      Convergence after  6 iterations
        7   1    2    1  -231.70871455    0.26E-09  -0.52E-05   15  34 1  0.10E-04   0.01   1.05    QN   YES    0:00:00
 
      ************************************************************************************************************************
                                                      Wave function printout:
                       occupation of active orbitals, and spin coupling of open shells (u,d: Spin up or down)
      ************************************************************************************************************************
 
      Note: transformation to natural orbitals
      has been made, which may change the order of the CSFs.
 
      printout of CI-coefficients larger than  0.05 for root  1
      energy=    -231.708715
      conf/sym  111111     Coeff  Weight
             1  222000  -0.91363 0.83471
            11  220200   0.19680 0.03873
            13  220020   0.06581 0.00433
            16  220002   0.05056 0.00256
            18  2udud0   0.17465 0.03050
            21  2ud0ud  -0.07061 0.00499
            25  u2d020  -0.06033 0.00364
            26  u2du0d   0.15534 0.02413
            29  202200   0.06920 0.00479
            31  202020   0.09432 0.00890
            32  202u0d  -0.06119 0.00374
            36  ud2ud0  -0.07449 0.00555
            39  ud20ud   0.08919 0.00796
            41  022200   0.05455 0.00298
            46  022002   0.05690 0.00324
 
      Natural orbitals and occupation numbers for root  1
      sym 1:   1.929733   1.899177   1.824487   0.178090   0.099957   0.068555
 
      ************************************************************************************************************************
      *                                                                                                                      *
      *                                                    Final results                                                     *
      *                                                                                                                      *
      ************************************************************************************************************************
 
 
++    Wave function specifications:
      -----------------------------
 
      Number of closed shell electrons          38
      Number of electrons in active shells       6
      Max number of holes in RAS1 space          0
      Max nr of electrons in RAS3 space          0
      Number of inactive orbitals               19
      Number of active orbitals                  6
      Number of secondary orbitals              13
      Spin quantum number                      0.0
      State symmetry                             1
--
 
++    Orbital specifications:
      -----------------------
 
      Symmetry species                           1
                                                 a
      Frozen orbitals                            0
      Inactive orbitals                         19
      Active orbitals                            6
      RAS1 orbitals                              0
      RAS2 orbitals                              6
      RAS3 orbitals                              0
      Secondary orbitals                        13
      Deleted orbitals                           0
      Number of basis functions                 38
--
 
++    CI expansion specifications:
      ----------------------------
 
      Number of CSFs                           175
      Number of determinants                   210
      Number of root(s) required                 1
      CI root used                               1
      highest root included in the CI            1
      Root passed to geometry opt.               1
--
 
++    Final optimization conditions:
      ------------------------------
 
      Average CI energy                            -231.70871455
      RASSCF energy for state  1                   -231.70871455
      Super-CI energy                                -0.00000000
      RASSCF energy change                            0.00000000
      Max change in MO coefficients              -0.435E-05
      Max non-diagonal density matrix element    -0.525E-05
      Maximum BLB matrix element                  0.102E-04
      (orbital pair  15,  34 in symmetry   1)
      Norm of electronic gradient            0.395E-04
--
 
 
      Final state energy(ies):
      ------------------------
 
::    RASSCF root number  1 Total energy:   -231.70871455
 
++    Molecular orbitals:
      -------------------
 
      Pseudonatural active orbitals and approximate occupation numbers
 
 
 
 
      Molecular orbitals for symmetry species 1: a  
 
 
      Orbital            1         2         3         4         5         6         7         8         9        10
      Energy      -11.3524  -11.3524  -11.3481  -11.3468  -11.3339  -11.3339   -1.1423   -1.0911   -1.0180   -0.8809
      Occ. No.      2.0000    2.0000    2.0000    2.0000    2.0000    2.0000    2.0000    2.0000    2.0000    2.0000
 
    1 C1    1s      0.0300    0.0236   -0.0039    0.0036    0.9319   -0.3611   -0.0188   -0.0319    0.0321    0.0232
    2 C1    2s     -0.0005   -0.0004   -0.0001    0.0000    0.0006   -0.0002    0.1536    0.2787   -0.3155   -0.3178
    3 C1    2px     0.0000    0.0000    0.0001   -0.0001    0.0000    0.0000   -0.0026   -0.0026   -0.0027   -0.0188
    4 C1    2py     0.0001    0.0001    0.0002   -0.0001   -0.0004    0.0001   -0.0570   -0.0896    0.0696   -0.0439
    5 C1    2pz    -0.0000    0.0000    0.0000   -0.0000   -0.0000   -0.0000    0.0000    0.0000   -0.0000    0.0000
    6 C2    1s      0.0235   -0.0301   -0.0039   -0.0036    0.3611    0.9319   -0.0188    0.0319    0.0321   -0.0232
    7 C2    2s     -0.0004    0.0005   -0.0001   -0.0000    0.0002    0.0006    0.1536   -0.2787   -0.3155    0.3178
    8 C2    2px    -0.0000    0.0000   -0.0001   -0.0001   -0.0000   -0.0000    0.0026   -0.0026    0.0027   -0.0188
    9 C2    2py    -0.0001    0.0001   -0.0002   -0.0001    0.0001    0.0004    0.0570   -0.0896   -0.0696   -0.0439
   10 C2    2pz     0.0000   -0.0000   -0.0000    0.0000   -0.0000   -0.0000    0.0000   -0.0000   -0.0000   -0.0000
   11 H3    1s     -0.0003   -0.0002   -0.0001    0.0001   -0.0008    0.0003    0.0211    0.0467   -0.0676   -0.1072
   12 H4    1s     -0.0002    0.0003   -0.0001   -0.0001   -0.0003   -0.0008    0.0211   -0.0467   -0.0676    0.1072
   13 H5    1s     -0.0003   -0.0002   -0.0001    0.0000   -0.0008    0.0003    0.0214    0.0463   -0.0683   -0.1198
   14 H6    1s     -0.0002    0.0003   -0.0001   -0.0000   -0.0003   -0.0008    0.0214   -0.0463   -0.0683    0.1198
   15 C7    1s      0.7848    0.6144   -0.0567    0.0476   -0.0365    0.0142   -0.0319   -0.0392    0.0194   -0.0115
   16 C7    2s      0.0002    0.0003   -0.0005    0.0004   -0.0007    0.0003    0.2620    0.3347   -0.1733    0.1547
   17 C7    2px    -0.0001   -0.0001    0.0001   -0.0000   -0.0000    0.0000   -0.0492   -0.0264   -0.0494   -0.0982
   18 C7    2py     0.0003    0.0001    0.0003    0.0001   -0.0002    0.0001    0.0065    0.0633   -0.1418   -0.1938
   19 C7    2pz     0.0000    0.0000   -0.0000    0.0000    0.0000   -0.0000    0.0000    0.0000   -0.0000    0.0000
   20 C8    1s      0.6136   -0.7854   -0.0568   -0.0476   -0.0141   -0.0365   -0.0319    0.0392    0.0194    0.0115
   21 C8    2s      0.0002   -0.0003   -0.0005   -0.0004   -0.0003   -0.0007    0.2620   -0.3347   -0.1733   -0.1547
   22 C8    2px     0.0000   -0.0001   -0.0001   -0.0000   -0.0000    0.0000    0.0492   -0.0264    0.0494   -0.0982
   23 C8    2py    -0.0002    0.0002   -0.0003    0.0001    0.0001    0.0002   -0.0065    0.0633    0.1418   -0.1938
   24 C8    2pz    -0.0000    0.0000   -0.0000   -0.0000   -0.0000   -0.0000    0.0000   -0.0000   -0.0000   -0.0000
   25 H9    1s     -0.0006   -0.0005   -0.0003    0.0001   -0.0003    0.0001    0.0358    0.0568   -0.0374    0.0547
   26 H10   1s     -0.0005    0.0006   -0.0003   -0.0001   -0.0001   -0.0003    0.0358   -0.0568   -0.0374   -0.0547
   27 C11   1s      0.0619    0.0402    0.7047   -0.7059    0.0023   -0.0009   -0.0419   -0.0143   -0.0297   -0.0210
   28 C11   2s     -0.0006   -0.0002   -0.0001   -0.0008   -0.0001   -0.0001    0.3370    0.1282    0.2710    0.2624
   29 C11   2px     0.0000   -0.0002    0.0001   -0.0001   -0.0001    0.0000    0.0379    0.0577   -0.0267    0.0788
   30 C11   2py    -0.0000   -0.0003   -0.0001    0.0002   -0.0002    0.0002   -0.0544    0.0625   -0.1230    0.1328
   31 C11   2pz     0.0000   -0.0000   -0.0000    0.0000   -0.0000   -0.0000    0.0000    0.0000   -0.0000   -0.0000
   32 C12   1s      0.0504   -0.0540    0.7048    0.7058    0.0008    0.0023   -0.0419    0.0143   -0.0297    0.0210
   33 C12   2s     -0.0005    0.0003   -0.0001    0.0008   -0.0001   -0.0001    0.3370   -0.1282    0.2710   -0.2624
   34 C12   2px    -0.0000   -0.0002   -0.0001   -0.0001    0.0000    0.0001   -0.0379    0.0577    0.0267    0.0788
   35 C12   2py    -0.0000   -0.0003    0.0001    0.0002    0.0000    0.0003    0.0544    0.0625    0.1230    0.1328
   36 C12   2pz    -0.0000   -0.0000    0.0000   -0.0000    0.0000    0.0000    0.0000   -0.0000   -0.0000   -0.0000
   37 H13   1s     -0.0004   -0.0001   -0.0007    0.0003   -0.0002    0.0000    0.0471    0.0212    0.0600    0.0866
   38 H14   1s     -0.0004    0.0002   -0.0007   -0.0003   -0.0001   -0.0001    0.0471   -0.0212    0.0600   -0.0866
 
 
      Orbital           11        12        13        14        15        16        17        18        19        20
      Energy       -0.7917   -0.7846   -0.7001   -0.6720   -0.6360   -0.6071   -0.5783   -0.5472   -0.5259    0.0000
      Occ. No.      2.0000    2.0000    2.0000    2.0000    2.0000    2.0000    2.0000    2.0000    2.0000    1.9297
 
    1 C1    1s     -0.0122    0.0045    0.0010    0.0044   -0.0058    0.0089    0.0029   -0.0025   -0.0012    0.0000
    2 C1    2s      0.2632   -0.0848    0.0471    0.0821   -0.0194    0.0046   -0.0371    0.0264   -0.0203    0.0000
    3 C1    2px    -0.0230    0.0721    0.2167   -0.1448   -0.2673   -0.1633    0.2579    0.2938   -0.2089    0.0000
    4 C1    2py     0.1803   -0.0773    0.0833    0.2610   -0.2696    0.3144    0.1566   -0.0982    0.0044   -0.0000
    5 C1    2pz    -0.0000   -0.0000   -0.0000    0.0000    0.0000    0.0000   -0.0000   -0.0000    0.0000    0.2203
    6 C2    1s     -0.0122   -0.0045    0.0010   -0.0044    0.0058    0.0089    0.0029    0.0025   -0.0012    0.0000
    7 C2    2s      0.2632    0.0848    0.0471   -0.0821    0.0194    0.0046   -0.0371   -0.0264   -0.0203   -0.0000
    8 C2    2px     0.0230    0.0721   -0.2167   -0.1448   -0.2673    0.1633   -0.2579    0.2938    0.2089   -0.0000
    9 C2    2py    -0.1803   -0.0773   -0.0833    0.2610   -0.2696   -0.3144   -0.1566   -0.0982   -0.0044    0.0000
   10 C2    2pz    -0.0000    0.0000   -0.0000   -0.0000    0.0000    0.0000    0.0000    0.0000    0.0000    0.2203
   11 H3    1s      0.1553   -0.0833   -0.0674    0.2001    0.0534    0.2236   -0.1265   -0.2544    0.1690    0.0000
   12 H4    1s      0.1553    0.0833   -0.0674   -0.2001   -0.0534    0.2236   -0.1265    0.2544    0.1690   -0.0000
   13 H5    1s      0.1373   -0.0231    0.1561    0.0429   -0.2633    0.0136    0.2210    0.1920   -0.1735   -0.0000
   14 H6    1s      0.1373    0.0231    0.1561   -0.0429    0.2633    0.0136    0.2210   -0.1920   -0.1735   -0.0000
   15 C7    1s      0.0185   -0.0096    0.0050    0.0037   -0.0080    0.0044    0.0016   -0.0048    0.0017    0.0000
   16 C7    2s     -0.3021    0.1703   -0.0013   -0.0724    0.0347    0.0683   -0.0236   -0.0419   -0.0502   -0.0000
   17 C7    2px    -0.0663    0.1660    0.2639   -0.1794   -0.1301   -0.0261   -0.0256   -0.2854    0.3225    0.0000
   18 C7    2py     0.0933   -0.0546   -0.0688   -0.2136    0.2445   -0.3603   -0.1450    0.1196    0.0260   -0.0000
   19 C7    2pz    -0.0000    0.0000   -0.0000   -0.0000    0.0000    0.0000    0.0000    0.0000   -0.0000    0.3174
   20 C8    1s      0.0185    0.0096    0.0050   -0.0037    0.0080    0.0044    0.0016    0.0048    0.0017    0.0000
   21 C8    2s     -0.3021   -0.1703   -0.0013    0.0724   -0.0347    0.0683   -0.0236    0.0419   -0.0502   -0.0000
   22 C8    2px     0.0663    0.1660   -0.2639   -0.1794   -0.1301    0.0261    0.0256   -0.2854   -0.3225    0.0000
   23 C8    2py    -0.0933   -0.0546    0.0688   -0.2136    0.2445    0.3603    0.1450    0.1196   -0.0260   -0.0000
   24 C8    2pz    -0.0000    0.0000   -0.0000   -0.0000    0.0000    0.0000    0.0000    0.0000    0.0000    0.3174
   25 H9    1s     -0.1673    0.1508    0.1526   -0.0652   -0.1352    0.1424    0.0299   -0.2862    0.2319   -0.0000
   26 H10   1s     -0.1673   -0.1508    0.1526    0.0652    0.1352    0.1424    0.0299    0.2862    0.2320   -0.0000
   27 C11   1s     -0.0087    0.0130   -0.0044   -0.0049    0.0021   -0.0011    0.0080   -0.0025    0.0017   -0.0000
   28 C11   2s      0.1146   -0.2373   -0.0169    0.0076   -0.1457   -0.0629    0.0327    0.0468   -0.0544   -0.0000
   29 C11   2px    -0.1168    0.1907   -0.0053    0.2784    0.0759    0.2075   -0.1198    0.1987   -0.3351   -0.0000
   30 C11   2py    -0.1528   -0.1208   -0.2998    0.0103   -0.0489    0.1027    0.4041    0.0418    0.0109   -0.0000
   31 C11   2pz     0.0000    0.0000    0.0000   -0.0000   -0.0000    0.0000    0.0000    0.0000   -0.0000    0.4023
   32 C12   1s     -0.0087   -0.0130   -0.0044    0.0049   -0.0021   -0.0011    0.0080    0.0025    0.0017    0.0000
   33 C12   2s      0.1146    0.2373   -0.0169   -0.0076    0.1457   -0.0629    0.0327   -0.0468   -0.0544    0.0000
   34 C12   2px     0.1168    0.1907    0.0053    0.2784    0.0759   -0.2075    0.1198    0.1987    0.3351    0.0000
   35 C12   2py     0.1528   -0.1208    0.2998    0.0103   -0.0489   -0.1027   -0.4041    0.0418   -0.0109    0.0000
   36 C12   2pz     0.0000    0.0000   -0.0000   -0.0000    0.0000    0.0000    0.0000    0.0000    0.0000    0.4023
   37 H13   1s      0.0596   -0.2042   -0.0887   -0.1435   -0.1288   -0.1223    0.2526   -0.1042    0.2650   -0.0000
   38 H14   1s      0.0596    0.2042   -0.0887    0.1435    0.1288   -0.1223    0.2526    0.1042    0.2650   -0.0000
 
 
      Orbital           21        22        23        24        25
      Energy        0.0000    0.0000    0.0000    0.0000    0.0000
      Occ. No.      1.8992    1.8245    0.1781    0.1000    0.0686
 
    1 C1    1s     -0.0000   -0.0000    0.0000   -0.0000   -0.0000
    2 C1    2s     -0.0000   -0.0000    0.0000   -0.0000   -0.0000
    3 C1    2px    -0.0000   -0.0000    0.0000   -0.0000   -0.0000
    4 C1    2py     0.0000    0.0000   -0.0000    0.0000    0.0000
    5 C1    2pz    -0.4022   -0.4284    0.5189   -0.5675   -0.3504
    6 C2    1s     -0.0000   -0.0000    0.0000   -0.0000    0.0000
    7 C2    2s      0.0000    0.0000   -0.0000   -0.0000    0.0000
    8 C2    2px    -0.0000    0.0000   -0.0000    0.0000    0.0000
    9 C2    2py     0.0000    0.0000   -0.0000    0.0000    0.0000
   10 C2    2pz     0.4022   -0.4284   -0.5189   -0.5675    0.3504
   11 H3    1s      0.0000    0.0000   -0.0000    0.0000    0.0000
   12 H4    1s     -0.0000    0.0000    0.0000   -0.0000   -0.0000
   13 H5    1s     -0.0000   -0.0000   -0.0000    0.0000    0.0000
   14 H6    1s      0.0000    0.0000   -0.0000    0.0000    0.0000
   15 C7    1s      0.0000    0.0000   -0.0000    0.0000    0.0000
   16 C7    2s      0.0000    0.0000   -0.0000    0.0000    0.0000
   17 C7    2px     0.0000    0.0000   -0.0000    0.0000   -0.0000
   18 C7    2py     0.0000    0.0000   -0.0000    0.0000    0.0000
   19 C7    2pz    -0.4398   -0.2798   -0.3051    0.6465    0.5543
   20 C8    1s     -0.0000   -0.0000    0.0000   -0.0000   -0.0000
   21 C8    2s      0.0000    0.0000   -0.0000    0.0000   -0.0000
   22 C8    2px     0.0000    0.0000   -0.0000    0.0000    0.0000
   23 C8    2py     0.0000    0.0000   -0.0000    0.0000    0.0000
   24 C8    2pz     0.4398   -0.2798    0.3051    0.6465   -0.5543
   25 H9    1s      0.0000    0.0000   -0.0000   -0.0000    0.0000
   26 H10   1s     -0.0000    0.0000   -0.0000    0.0000    0.0000
   27 C11   1s      0.0000    0.0000   -0.0000    0.0000    0.0000
   28 C11   2s      0.0000    0.0000   -0.0000    0.0000    0.0000
   29 C11   2px     0.0000    0.0000   -0.0000    0.0000    0.0000
   30 C11   2py     0.0000    0.0000   -0.0000   -0.0000   -0.0000
   31 C11   2pz    -0.1180    0.4558   -0.5314   -0.2167   -0.6897
   32 C12   1s     -0.0000   -0.0000    0.0000   -0.0000   -0.0000
   33 C12   2s     -0.0000   -0.0000    0.0000   -0.0000   -0.0000
   34 C12   2px    -0.0000   -0.0000    0.0000   -0.0000   -0.0000
   35 C12   2py    -0.0000   -0.0000    0.0000   -0.0000   -0.0000
   36 C12   2pz     0.1180    0.4558    0.5314   -0.2167    0.6897
   37 H13   1s      0.0000   -0.0000   -0.0000    0.0000    0.0000
   38 H14   1s      0.0000    0.0000   -0.0000    0.0000    0.0000
--
 
      Von Neumann Entropy (Root  1) =  0.93509
 

      Mulliken population Analysis for root number:  1
      -----------------------------------------------
 
 
++    Molecular charges:
      ------------------
 
      Mulliken charges per centre and basis function type
      ---------------------------------------------------
 
             C1      C2      H3      H4      H5      H6      C7      C8      H9      H10     C11     C12   
      1s     2.0003  2.0003  0.8440  0.8440  0.8382  0.8382  2.0002  2.0002  0.8414  0.8414  2.0002  2.0002
      2s     1.1772  1.1772  0.0000  0.0000  0.0000  0.0000  1.1193  1.1193  0.0000  0.0000  1.1182  1.1182
      2px    1.1082  1.1082  0.0000  0.0000  0.0000  0.0000  1.0364  1.0364  0.0000  0.0000  1.0351  1.0351
      2pz    1.0061  1.0061  0.0000  0.0000  0.0000  0.0000  0.9954  0.9954  0.0000  0.0000  0.9985  0.9985
      2py    1.0244  1.0244  0.0000  0.0000  0.0000  0.0000  1.0095  1.0095  0.0000  0.0000  1.0011  1.0011
      Total  6.3163  6.3163  0.8440  0.8440  0.8382  0.8382  6.1608  6.1608  0.8414  0.8414  6.1531  6.1531
 
      N-E   -0.3163 -0.3163  0.1560  0.1560  0.1618  0.1618 -0.1608 -0.1608  0.1586  0.1586 -0.1531 -0.1531
 
             H13     H14   
      1s     0.8462  0.8462
      2s     0.0000  0.0000
      2px    0.0000  0.0000
      2pz    0.0000  0.0000
      2py    0.0000  0.0000
      Total  0.8462  0.8462
 
      N-E    0.1538  0.1538
 
      Total electronic charge=   44.000000
 
      Total            charge=   -0.000000
--
 
 

      Expectation values of various properties for root number:  1
      -----------------------------------------------------------
 
 
++    Molecular properties:
      ---------------------
 
      Charge (e):
                      =   -0.0000
      Dipole Moment (Debye):
      Origin of the operator (Ang)=    0.0000    0.0000    0.0000
                   X=  1.9357E-06               Y=  8.0974E-06               Z=  3.6770E-13           Total=  8.3255E-06
      Quadrupole Moment (Debye*Ang):
      Origin of the operator (Ang)=    0.0000    0.0000    0.0000
                  XX= -3.9306E+01              XY= -4.8146E-01              XZ=  7.7357E-13              YY= -4.0158E+01
                  YZ=  6.9612E-13              ZZ= -4.5670E+01
      In traceless form (Debye*Ang)
                  XX=  3.6085E+00              XY= -7.2219E-01              XZ=  1.1603E-12              YY=  2.3298E+00
                  YZ=  1.0442E-12              ZZ= -5.9383E+00
--
 

      LoProp population Analysis for root number:  1
      -----------------------------------------------
 
 
++    LoProp Analysis:
      ----------------
 
 
 
  Input file to MOLDEN was generated!
 
 
++    Static properties:
      ------------------
 
 
      LoProp Charges per center
 

                   C1       C2       H3       H4       H5       H6       C7       C8       H9       H10   
      Nuclear      6.0000   6.0000   1.0000   1.0000   1.0000   1.0000   6.0000   6.0000   1.0000   1.0000
      Electronic  -6.2138  -6.2138  -0.8983  -0.8983  -0.8939  -0.8939  -6.0944  -6.0944  -0.8995  -0.8995
 
      Total       -0.2138  -0.2138   0.1017   0.1017   0.1061   0.1061  -0.0944  -0.0944   0.1005   0.1005
 

                   C11      C12      H13      H14   
      Nuclear      6.0000   6.0000   1.0000   1.0000
      Electronic  -6.0976  -6.0976  -0.9025  -0.9025
 
      Total       -0.0976  -0.0976   0.0975   0.0975
--
 
 
      Natural Bond Order Analysis for root number:  1
 
++    Natural Bond Order analysis
      ---------------------------
      Based on LoProp computed density
      -------------------------------------------------------------------------------------
      Atom A       Atom B       Bond Order | Atom A       Atom B       Bond Order
        C1           C7             0.999  |   C2           H6             0.993
        C2           C8             0.999  |   C7           H9             0.990
        C11          C12            1.897  |   C7           C11            0.992
        C1           H3             0.993  |   C8           H10            0.990
        C1           H5             0.993  |   C8           C12            0.992
        C2           H4             0.993  |   C11          H13            0.990
        C12          H14            0.990  |
      -------------------------------------------------------------------------------------
      NBO located     12.000 core electrons.
      NBO located     27.622 electrons involved in   13 bonds.
      The remaining    4.378 electrons are to be considered as diffuse
--
 
--
 
 
  Input file to MOLDEN was generated!
 
      Average orbitals are written to the RASORB file
      Natural orbitals for root   1 are written to the RASORB.1 file
      Spin density orbitals for root   1 are written to the SPDORB.1 file
 
--- Stop Module:  rasscf at Mon Oct 21 03:29:35 2019 /rc=0 ---
*** 
--- Start Module: caspt2 at Mon Oct 21 03:29:41 2019 
----------------------------------------------------------------------------------------------------
 DGA/MPI-2 Parallel Environment:    4 Molcas's processes are running on   1 node(s) x  4 cores each
----------------------------------------------------------------------------------------------------
 
()()()()()()()()()()()()()()()()()()()()()()()()()()()()()()()()()()()()()()()()()()()()()()()()()()

                                              &CASPT2

             launched 4 MPI processes, running in PARALLEL mode (work-sharing enabled)
                        available to each process: 20 GB of memory, 1 thread
()()()()()()()()()()()()()()()()()()()()()()()()()()()()()()()()()()()()()()()()()()()()()()()()()()
 
 Cholesky algorithm in CASPT2 =    1
 
 
++    Wave function specifications:
[...]
   16 C7    2s      0.0002    0.0003   -0.0005    0.0004   -0.0007    0.0003    0.2620    0.3347   -0.1733    0.1547
   17 C7    2px    -0.0001   -0.0001    0.0001   -0.0000   -0.0000    0.0000   -0.0492   -0.0264   -0.0494   -0.0982
   18 C7    2py     0.0003    0.0001    0.0003    0.0001   -0.0002    0.0001    0.0065    0.0633   -0.1418   -0.1938
   19 C7    2pz     0.0000    0.0000   -0.0000    0.0000    0.0000   -0.0000    0.0000    0.0000   -0.0000    0.0000
   20 C8    1s      0.6141   -0.7850   -0.0567   -0.0476   -0.0140   -0.0365   -0.0319    0.0392    0.0194    0.0115
   21 C8    2s      0.0002   -0.0003   -0.0005   -0.0004   -0.0003   -0.0007    0.2620   -0.3347   -0.1733   -0.1547
   22 C8    2px     0.0000   -0.0001   -0.0001   -0.0000   -0.0000    0.0000    0.0492   -0.0264    0.0494   -0.0982
   23 C8    2py    -0.0002    0.0002   -0.0003    0.0001    0.0001    0.0002   -0.0065    0.0633    0.1418   -0.1938
   24 C8    2pz    -0.0000    0.0000   -0.0000   -0.0000   -0.0000   -0.0000    0.0000   -0.0000   -0.0000   -0.0000
   25 H9    1s     -0.0006   -0.0005   -0.0003    0.0001   -0.0003    0.0001    0.0358    0.0568   -0.0374    0.0547
   26 H10   1s     -0.0005    0.0006   -0.0003   -0.0001   -0.0001   -0.0003    0.0358   -0.0568   -0.0374   -0.0547
   27 C11   1s      0.0618    0.0403    0.7047   -0.7059    0.0023   -0.0009   -0.0419   -0.0143   -0.0297   -0.0210
   28 C11   2s     -0.0006   -0.0002   -0.0001   -0.0008   -0.0001   -0.0001    0.3370    0.1282    0.2710    0.2624
   29 C11   2px     0.0000   -0.0002    0.0001   -0.0001   -0.0001    0.0000    0.0379    0.0577   -0.0267    0.0788
   30 C11   2py    -0.0000   -0.0003   -0.0001    0.0002   -0.0002    0.0002   -0.0544    0.0625   -0.1230    0.1328
   31 C11   2pz     0.0000   -0.0000   -0.0000    0.0000   -0.0000   -0.0000    0.0000    0.0000   -0.0000   -0.0000
   32 C12   1s      0.0504   -0.0539    0.7048    0.7058    0.0008    0.0023   -0.0419    0.0143   -0.0297    0.0210
   33 C12   2s     -0.0005    0.0003   -0.0001    0.0008   -0.0001   -0.0001    0.3370   -0.1282    0.2710   -0.2624
   34 C12   2px    -0.0000   -0.0002   -0.0001   -0.0001    0.0000    0.0001   -0.0379    0.0577    0.0267    0.0788
   35 C12   2py    -0.0000   -0.0003    0.0001    0.0002    0.0000    0.0003    0.0544    0.0625    0.1230    0.1328
   36 C12   2pz    -0.0000   -0.0000    0.0000   -0.0000    0.0000    0.0000    0.0000   -0.0000   -0.0000   -0.0000
   37 H13   1s     -0.0004   -0.0001   -0.0007    0.0003   -0.0002    0.0000    0.0471    0.0212    0.0600    0.0866
   38 H14   1s     -0.0004    0.0002   -0.0007   -0.0003   -0.0001   -0.0001    0.0471   -0.0212    0.0600   -0.0866
 
 
      Orbital           11        12        13        14        15        16        17        18        19        20
      Energy       -0.7917   -0.7846   -0.7001   -0.6720   -0.6360   -0.6071   -0.5783   -0.5472   -0.5259   -0.5102
 
    1 C1    1s     -0.0122    0.0045    0.0010    0.0044   -0.0058    0.0089    0.0029   -0.0025   -0.0012    0.0000
    2 C1    2s      0.2632   -0.0848    0.0471    0.0821   -0.0194    0.0046   -0.0372    0.0264   -0.0203    0.0000
    3 C1    2px    -0.0230    0.0721    0.2167   -0.1448   -0.2673   -0.1633    0.2579    0.2938   -0.2088    0.0000
    4 C1    2py     0.1803   -0.0773    0.0833    0.2610   -0.2696    0.3144    0.1566   -0.0982    0.0044   -0.0000
    5 C1    2pz    -0.0000   -0.0000   -0.0000    0.0000    0.0000    0.0000   -0.0000   -0.0000    0.0000    0.2132
    6 C2    1s     -0.0122   -0.0045    0.0010   -0.0044    0.0058    0.0089    0.0029    0.0025   -0.0012    0.0000
    7 C2    2s      0.2632    0.0848    0.0471   -0.0821    0.0194    0.0046   -0.0372   -0.0264   -0.0203   -0.0000
    8 C2    2px     0.0230    0.0721   -0.2167   -0.1448   -0.2673    0.1633   -0.2579    0.2938    0.2088   -0.0000
    9 C2    2py    -0.1803   -0.0773   -0.0833    0.2610   -0.2696   -0.3144   -0.1566   -0.0982   -0.0044    0.0000
   10 C2    2pz    -0.0000    0.0000   -0.0000   -0.0000    0.0000    0.0000    0.0000    0.0000    0.0000    0.2132
   11 H3    1s      0.1553   -0.0833   -0.0674    0.2001    0.0534    0.2236   -0.1265   -0.2544    0.1690    0.0000
   12 H4    1s      0.1553    0.0833   -0.0674   -0.2001   -0.0534    0.2236   -0.1265    0.2544    0.1690   -0.0000
   13 H5    1s      0.1373   -0.0231    0.1561    0.0429   -0.2633    0.0136    0.2210    0.1920   -0.1735   -0.0000
   14 H6    1s      0.1373    0.0231    0.1561   -0.0429    0.2633    0.0136    0.2210   -0.1920   -0.1735   -0.0000
   15 C7    1s      0.0185   -0.0096    0.0050    0.0037   -0.0080    0.0044    0.0016   -0.0048    0.0017    0.0000
   16 C7    2s     -0.3020    0.1703   -0.0013   -0.0724    0.0347    0.0683   -0.0236   -0.0419   -0.0502   -0.0000
   17 C7    2px    -0.0663    0.1660    0.2639   -0.1794   -0.1301   -0.0261   -0.0257   -0.2854    0.3225    0.0000
   18 C7    2py     0.0933   -0.0546   -0.0688   -0.2136    0.2445   -0.3603   -0.1450    0.1196    0.0260   -0.0000
   19 C7    2pz    -0.0000    0.0000   -0.0000   -0.0000    0.0000    0.0000    0.0000    0.0000   -0.0000    0.3161
   20 C8    1s      0.0185    0.0096    0.0050   -0.0037    0.0080    0.0044    0.0016    0.0048    0.0017    0.0000
   21 C8    2s     -0.3020   -0.1703   -0.0013    0.0724   -0.0347    0.0683   -0.0236    0.0419   -0.0502   -0.0000
   22 C8    2px     0.0662    0.1660   -0.2639   -0.1794   -0.1301    0.0261    0.0256   -0.2854   -0.3225    0.0000
   23 C8    2py    -0.0933   -0.0546    0.0688   -0.2136    0.2445    0.3603    0.1450    0.1196   -0.0260   -0.0000
   24 C8    2pz    -0.0000    0.0000   -0.0000   -0.0000    0.0000    0.0000    0.0000    0.0000    0.0000    0.3161
   25 H9    1s     -0.1673    0.1508    0.1526   -0.0652   -0.1352    0.1424    0.0299   -0.2862    0.2319   -0.0000
   26 H10   1s     -0.1673   -0.1508    0.1526    0.0652    0.1352    0.1424    0.0299    0.2862    0.2320   -0.0000
   27 C11   1s     -0.0087    0.0130   -0.0044   -0.0049    0.0021   -0.0011    0.0080   -0.0025    0.0017   -0.0000
   28 C11   2s      0.1146   -0.2373   -0.0169    0.0076   -0.1457   -0.0629    0.0327    0.0468   -0.0544   -0.0000
   29 C11   2px    -0.1168    0.1907   -0.0053    0.2784    0.0759    0.2075   -0.1197    0.1987   -0.3351   -0.0000
   30 C11   2py    -0.1528   -0.1208   -0.2998    0.0103   -0.0489    0.1027    0.4041    0.0418    0.0109   -0.0000
   31 C11   2pz     0.0000    0.0000    0.0000   -0.0000   -0.0000    0.0000    0.0000    0.0000   -0.0000    0.4072
   32 C12   1s     -0.0087   -0.0130   -0.0044    0.0049   -0.0021   -0.0011    0.0080    0.0025    0.0017    0.0000
   33 C12   2s      0.1146    0.2373   -0.0169   -0.0076    0.1457   -0.0629    0.0327   -0.0468   -0.0544    0.0000
   34 C12   2px     0.1168    0.1907    0.0053    0.2784    0.0759   -0.2075    0.1197    0.1987    0.3351    0.0000
   35 C12   2py     0.1528   -0.1208    0.2998    0.0103   -0.0489   -0.1027   -0.4041    0.0418   -0.0109    0.0000
   36 C12   2pz     0.0000    0.0000   -0.0000   -0.0000    0.0000    0.0000    0.0000    0.0000    0.0000    0.4072
   37 H13   1s      0.0596   -0.2042   -0.0887   -0.1435   -0.1288   -0.1223    0.2526   -0.1042    0.2650   -0.0000
   38 H14   1s      0.0596    0.2042   -0.0887    0.1435    0.1288   -0.1223    0.2526    0.1042    0.2650   -0.0000
 
 
      Orbital           21        22        23        24        25
      Energy       -0.4374   -0.3237    0.0510    0.1930    0.2957
 
    1 C1    1s     -0.0000   -0.0000    0.0000   -0.0000   -0.0000
    2 C1    2s     -0.0000   -0.0000    0.0000   -0.0000   -0.0000
    3 C1    2px    -0.0000   -0.0000    0.0000   -0.0000   -0.0000
    4 C1    2py     0.0000    0.0000   -0.0000    0.0000    0.0000
    5 C1    2pz    -0.3983   -0.4389    0.5300   -0.5621   -0.3381
    6 C2    1s     -0.0000   -0.0000    0.0000   -0.0000    0.0000
    7 C2    2s      0.0000    0.0000   -0.0000   -0.0000    0.0000
    8 C2    2px    -0.0000    0.0000   -0.0000    0.0000    0.0000
    9 C2    2py     0.0000    0.0000   -0.0000    0.0000    0.0000
   10 C2    2pz     0.3983   -0.4389   -0.5300   -0.5621    0.3381
   11 H3    1s      0.0000    0.0000   -0.0000    0.0000    0.0000
   12 H4    1s     -0.0000    0.0000    0.0000   -0.0000   -0.0000
   13 H5    1s     -0.0000   -0.0000   -0.0000    0.0000    0.0000
   14 H6    1s      0.0000    0.0000   -0.0000    0.0000    0.0000
   15 C7    1s      0.0000    0.0000   -0.0000    0.0000    0.0000
   16 C7    2s      0.0000    0.0000   -0.0000    0.0000    0.0000
   17 C7    2px     0.0000    0.0000   -0.0000    0.0000   -0.0000
   18 C7    2py     0.0000    0.0000   -0.0000    0.0000    0.0000
   19 C7    2pz    -0.4406   -0.2747   -0.3117    0.6494    0.5500
   20 C8    1s     -0.0000   -0.0000    0.0000   -0.0000   -0.0000
   21 C8    2s      0.0000    0.0000   -0.0000    0.0000   -0.0000
   22 C8    2px     0.0000    0.0000   -0.0000    0.0000    0.0000
   23 C8    2py     0.0000    0.0000   -0.0000    0.0000    0.0000
   24 C8    2pz     0.4406   -0.2747    0.3117    0.6493   -0.5500
   25 H9    1s      0.0000    0.0000   -0.0000   -0.0000    0.0000
   26 H10   1s     -0.0000    0.0000   -0.0000    0.0000    0.0000
   27 C11   1s      0.0000    0.0000   -0.0000    0.0000    0.0000
   28 C11   2s      0.0000    0.0000   -0.0000    0.0000   -0.0000
   29 C11   2px     0.0000    0.0000   -0.0000    0.0000    0.0000
   30 C11   2py     0.0000    0.0000   -0.0000   -0.0000   -0.0000
   31 C11   2pz    -0.1264    0.4478   -0.5161   -0.2243   -0.6997
   32 C12   1s     -0.0000   -0.0000    0.0000   -0.0000   -0.0000
   33 C12   2s     -0.0000   -0.0000    0.0000   -0.0000   -0.0000
   34 C12   2px    -0.0000   -0.0000    0.0000   -0.0000   -0.0000
   35 C12   2py    -0.0000   -0.0000    0.0000   -0.0000   -0.0000
   36 C12   2pz     0.1264    0.4478    0.5161   -0.2242    0.6998
   37 H13   1s      0.0000   -0.0000   -0.0000    0.0000    0.0000
   38 H14   1s      0.0000    0.0000   -0.0000    0.0000    0.0000
--
 
      Von Neumann Entropy (Root  1) =  0.93509
 

      Mulliken population Analysis for root number:  1
      -----------------------------------------------
 
 
++    Molecular charges:
      ------------------
 
      Mulliken charges per centre and basis function type
      ---------------------------------------------------
 
             C1      C2      H3      H4      H5      H6      C7      C8      H9      H10     C11     C12   
      1s     2.0003  2.0003  0.8440  0.8440  0.8382  0.8382  2.0002  2.0002  0.8414  0.8414  2.0002  2.0002
      2s     1.1772  1.1772  0.0000  0.0000  0.0000  0.0000  1.1192  1.1192  0.0000  0.0000  1.1182  1.1182
      2px    1.1082  1.1082  0.0000  0.0000  0.0000  0.0000  1.0364  1.0364  0.0000  0.0000  1.0351  1.0351
      2pz    1.0061  1.0061  0.0000  0.0000  0.0000  0.0000  0.9954  0.9954  0.0000  0.0000  0.9985  0.9985
      2py    1.0244  1.0244  0.0000  0.0000  0.0000  0.0000  1.0095  1.0095  0.0000  0.0000  1.0011  1.0011
      Total  6.3163  6.3163  0.8440  0.8440  0.8382  0.8382  6.1608  6.1608  0.8414  0.8414  6.1531  6.1531
 
      N-E   -0.3163 -0.3163  0.1560  0.1560  0.1618  0.1618 -0.1608 -0.1608  0.1586  0.1586 -0.1531 -0.1531
 
             H13     H14   
      1s     0.8462  0.8462
      2s     0.0000  0.0000
      2px    0.0000  0.0000
      2pz    0.0000  0.0000
      2py    0.0000  0.0000
      Total  0.8462  0.8462
 
      N-E    0.1538  0.1538
 
      Total electronic charge=   44.000000
 
      Total            charge=   -0.000000
--
 
 

      Expectation values of various properties for root number:  1
      -----------------------------------------------------------
 
 
++    Molecular properties:
      ---------------------
 
      Charge (e):
                      =   -0.0000
      Dipole Moment (Debye):
      Origin of the operator (Ang)=    0.0000    0.0000    0.0000
                   X=  2.0588E-06               Y=  8.3915E-06               Z=  3.6771E-13           Total=  8.6403E-06
      Quadrupole Moment (Debye*Ang):
      Origin of the operator (Ang)=    0.0000    0.0000    0.0000
                  XX= -3.9306E+01              XY= -4.8135E-01              XZ=  7.7358E-13              YY= -4.0158E+01
                  YZ=  6.9614E-13              ZZ= -4.5670E+01
      In traceless form (Debye*Ang)
                  XX=  3.6082E+00              XY= -7.2203E-01              XZ=  1.1604E-12              YY=  2.3302E+00
                  YZ=  1.0442E-12              ZZ= -5.9384E+00
--
 

      LoProp population Analysis for root number:  1
      -----------------------------------------------
 
 
++    LoProp Analysis:
      ----------------
 
 
 
  Input file to MOLDEN was generated!
 
 
++    Static properties:
      ------------------
 
 
      LoProp Charges per center
 

                   C1       C2       H3       H4       H5       H6       C7       C8       H9       H10   
      Nuclear      6.0000   6.0000   1.0000   1.0000   1.0000   1.0000   6.0000   6.0000   1.0000   1.0000
      Electronic  -6.2138  -6.2138  -0.8983  -0.8983  -0.8939  -0.8939  -6.0944  -6.0944  -0.8996  -0.8996
 
      Total       -0.2138  -0.2138   0.1017   0.1017   0.1061   0.1061  -0.0944  -0.0944   0.1004   0.1004
 

                   C11      C12      H13      H14   
      Nuclear      6.0000   6.0000   1.0000   1.0000
      Electronic  -6.0976  -6.0976  -0.9025  -0.9025
 
      Total       -0.0976  -0.0976   0.0975   0.0975
--
 
 
      Natural Bond Order Analysis for root number:  1
 
++    Natural Bond Order analysis
      ---------------------------
      Based on LoProp computed density
      -------------------------------------------------------------------------------------
      Atom A       Atom B       Bond Order | Atom A       Atom B       Bond Order
        C1           C7             0.999  |   C2           H6             0.993
        C2           C8             0.999  |   C7           H9             0.990
        C11          C12            1.897  |   C7           C11            0.992
        C1           H3             0.993  |   C8           H10            0.990
        C1           H5             0.993  |   C8           C12            0.992
        C2           H4             0.993  |   C11          H13            0.990
        C12          H14            0.990  |
      -------------------------------------------------------------------------------------
      NBO located     12.000 core electrons.
      NBO located     27.622 electrons involved in   13 bonds.
      The remaining    4.378 electrons are to be considered as diffuse
--
 
--
 
 
  Input file to MOLDEN was generated!
 
      Canonical orbitals are written to the RASORB file
      Natural orbitals for root   1 are written to the RASORB.1 file
      Spin density orbitals for root   1 are written to the SPDORB.1 file
 
--- Stop Module:  rasscf at Mon Oct 21 03:29:59 2019 /rc=0 ---
--- Module rasscf spent 9 seconds 
*** 
--- Start Module: caspt2 at Mon Oct 21 03:30:05 2019 
----------------------------------------------------------------------------------------------------
 DGA/MPI-2 Parallel Environment:    4 Molcas's processes are running on   1 node(s) x  4 cores each
----------------------------------------------------------------------------------------------------
 
()()()()()()()()()()()()()()()()()()()()()()()()()()()()()()()()()()()()()()()()()()()()()()()()()()

                                              &CASPT2

             launched 4 MPI processes, running in PARALLEL mode (work-sharing enabled)
                        available to each process: 20 GB of memory, 1 thread
()()()()()()()()()()()()()()()()()()()()()()()()()()()()()()()()()()()()()()()()()()()()()()()()()()
 
 Cholesky algorithm in CASPT2 =    1
 
 
++    Wave function specifications:
      -----------------------------
 
      Number of closed shell electrons          26
      Number of electrons in active shells       6
      Max number of holes in RAS1 space          0
      Max number of electrons in RAS3 space      0
      Number of inactive orbitals               13
      Number of active orbitals                  6
      Number of secondary orbitals              13
      Spin quantum number                      0.0
      State symmetry                             1
      Number of CSFs                             1
      Number of root(s) available                1
      Root passed to geometry opt.               1
      A file JOBMIX will be created.
      This is a CASSCF or RASSCF reference function
      This is a DMRG reference with exact 4-RDM, activated by 3RDM keyword in RASSCF
      CheMPS2 assumes pseudocanonical basis
--
 
++    Orbital specifications:
      -----------------------
 
      Symmetry species                           1
                                                 a
      Frozen orbitals                            6
      Inactive orbitals                         13
      Active orbitals                            6
      Secondary orbitals                        13
      Deleted orbitals                           0
      Number of basis functions                 38
--
 
      Type of Fock operator: STANDARD
      Type of 0-order Hamiltonian: STANDARD WITH DEFAULT IPEA
        "IP-EA" denominator shift =      0.25
      The input orbitals and the CI vector will be transformed.
 
--------------------------------------------------------------------------------
 Estimated memory requirements:
  POLY3 :                   250582
  RHS:                      260182
  SIGMA :                   280422
  PRPCTL:                        0
 Available workspace:   2249997478
 
++ CASPT2 computation    1
 
********************************************************************************
 Multi-State initialization phase begins for group   1
--------------------------------------------------------------------------------
 CHEMPS2> CheMPS2 assumes pseudocanonical orbitals
********************************************************************************
 Compute H0 matrices for state    1
--------------------------------------------------------------------------------
 CHEMPS2> Read F.4RDM
--------------------------------------------------------------------------------
 H0 matrices have been computed.
 
********************************************************************************
  CASPT2 EQUATION SOLUTION
--------------------------------------------------------------------------------
 
  Total nr of CASPT2 parameters:
   Before reduction:       64675
   After  reduction:       64194
-------------------------------------------------------------------------------------------------------------------
 
  FINAL CASPT2 RESULT:
 
      Reference energy:        -231.7087145494
      E2 (Non-variational):      -0.2441030221
      E2 (Variational):          -0.2441030222
      Total energy:            -231.9528175716
      Residual norm:              0.0000000781
      Reference weight:           0.90841
 
      Contributions to the CASPT2 correlation energy
      Active & Virtual Only:         -0.0012249852
      One Inactive Excited:          -0.0782185520
      Two Inactive Excited:          -0.1646594849
 
 
++ Denominators, etc.
----------------------------------------------------------------------------------------------------
 Report on small energy denominators, large coefficients, and large energy contributions.
CASE  SYMM ACTIVE-MIX  NON-ACTIVE INDICES          DENOMINATOR     RHS VALUE       COEFFICIENT     CONTRIBUTION
--
 
   (Skipping property calculation,
    use PROP keyword to activate)
--
 
  Total CASPT2 energies:
::    CASPT2 Root  1     Total energy:   -231.95281757
 
--- Stop Module:  caspt2 at Mon Oct 21 03:30:08 2019 /rc=0 ---
--- Stop Module:  auto at Mon Oct 21 03:30:10 2019 /rc=0 ---
--- Module auto spent 1 minute and 16 seconds 
