   License is going to expire in 44 days  on Wednesday May 9th, 2018
   This copy of MOLCAS is licensed to Kristine Pierloot
                                                                       
                             ^^^                                       
                             ^^^          ++++  +++++  ++++++ +   ++   
                 ^^^        ^^^^^        ++  ++ ++  ++ ++     ++  ++   
                ^^^^^       ^^ ^^        ++  ++ ++  ++ ++     +++ ++   
                ^^ ^^      ^^   ^^       ++  ++ +++++  ++++   ++++++   
                ^^  ^^     ^^   ^^       ++  ++ ++     ++     ++ +++   
               ^^   ^  ^^^^  ^  ^^       ++  ++ ++     ++     ++  ++   
               ^^  ^   ^^^   ^^ ^^        ++++  ++     ++++++ ++   +   
               ^  ^^^   ^^  ^^^  ^^                                    
            ^^^   ^^^   ^   ^^^    ^^                                  
        ^^^^^^^  ^^^^^     ^^^^^   ^^^^^^                              
     ^^^^^^^^^   ^^^^^^^^^^^^^^^   ^^^^^^^^^                           
    ^^^^^^^^^^   ^^           ^^   ^^^    ^^^                          
    ^^^^^^^^^^       ^^**^^^        ^     ^^^                          
    ^^^^^^^^^^    ^^^^**^^^^^^^     ^  ^  ^^^                          
    ^^^^^^^^^^   **^^***********    ^  ^  ^^^                          
    ^^^^^^^^^   ^^***********^^^^   ^  ^  ^^^    ^^^^    ^^    ^^^^    
    ^^^^^^^^^   ^^^***********^^^   ^  ^  ^^^   ^^  ^^  ^^^^  ^^   ^   
    ^^^^^^^^^   ^^^^***********^^      ^  ^^^   ^      ^^  ^^ ^^       
    ^^^^^^^^     ***********^^**       ^  ^^^   ^      ^^  ^^  ^^^^    
    ^^^^^^        ^^^^^^^**^^^^        ^  ^^^   ^      ^^^^^^     ^^   
    ^^^     ^^^      ^^^**^^     ^     ^   ^^   ^^  ^^ ^^  ^^ ^   ^^   
          ^^^^^^^^^            ^^^^   ^^^        ^^^^  ^    ^  ^^^^    
     ^^^^^^^^^^^^^^^^^^^^^^^^^^^^^^^^^^^^^^^                           
        ^^^^^^^^^^^^^^^^^^^^^^^^^^^^^^^^^                              
            ^^^^^^^^^^^^^^^^^^^^^^^^^                                  
               ^^^^^^^^^^^^^^^^^^^        version 18.0                  
                   ^^^^^^^^^^^                                         
                       ^^^                tag o180313-0800                      
                                              $Px$                     
                                                                       
 OpenMolcas is free software; you can redistribute it and/or modify it 
 under the terms of the GNU Lesser General Public License version 2.1. 
 OpenMolcas is distributed in the hope that it will be useful, but it  
 is provided "as is" and without any express or implied warranties.    
 For more details see the full text of the license in the file         
 LICENSE or in <http://www.gnu.org/licenses/>.                         
                                                                       
                 Copyright (C) The OpenMolcas Authors                  
           For the author list and the recommended citation,           
                   consult the file CONTRIBUTORS.md                    

configuration info
------------------
C Compiler ID: Intel
C flags: -std=gnu99
Fortran Compiler ID: Intel
Fortran flags: -fpp -i8 -r8 -heap-arrays
Definitions: _MOLCAS_;_HAVE_EXTRA_;_I8_;_LINUX_;_MOLCAS_MPP_;SCALAPACK;_MKL_
Parallel: ON (GA=OFF)


   -------------------------------------------------------------------
  |                                                                   
  |   Project         = polyene
  |   Submitted from  = /home/tccm1/polyene/c10
  |   Scratch area    = /temp0/tccm1/polyene.work
  |   Save outputs to = WORKDIR
  |   Molcas          = /home/tccm1/source/molcas-extra/build
  |                                                                   
  |   Scratch area is empty
  |                                                                   
  |       MOLCAS_TRAP = ON                  
  |      MOLCAS_PRINT = 2                   
  |     MOLCAS_NPROCS = 1                   
  |     MOLCAS_SOURCE = /home/tccm1/source/molcas-extra/build
  |                                                                   
   -------------------------------------------------------------------
--- Start Module: auto at Mon Mar 26 18:05:20 2018 

++ ---------   Input file   ---------

  &GATEWAY
    Coord
      22
    C       0.250533   -5.544630    0.000000
    H       1.335820   -5.617353    0.000000
    H      -0.300921   -6.479659    0.000000
    C      -0.374959   -4.354458    0.000000
    H      -1.465265   -4.328590    0.000000
    C       0.297644   -3.073542    0.000000
    H       1.388352   -3.090434    0.000000
    C      -0.340714   -1.875850    0.000000
    H      -1.431787   -1.864878    0.000000
    C       0.321071   -0.599242    0.000000
    H       1.411969   -0.608592    0.000000
    C      -0.321071    0.599242    0.000000
    H      -1.411969    0.608592    0.000000
    C       0.340714    1.875850    0.000000
    H       1.431787    1.864878    0.000000
    C      -0.297644    3.073542    0.000000
    H      -1.388352    3.090434    0.000000
    C       0.374959    4.354458    0.000000
    H       1.465265    4.328590    0.000000
    C      -0.250533    5.544630    0.000000
    H      -1.335820    5.617353    0.000000
    H       0.300921    6.479659    0.000000
    Basis 
    ANO-RCC-MB
    GROUP 
    NOSYM
  &SEWARD
    Medium
  &SCF
  &RASSCF
    Spin 
      1
    Symmetry 
      1
    nActEl 
      10 0 0
    Inactive 
      31
    Ras2     
      10
    Iter 
      100 100
    LumOrb
 >>FOREACH D in (100, 200, 400)
  &RASSCF
    Spin 
      1
    Symmetry 
      1
    nActEl 
      10 0 0
    Inactive 
      31
    Ras2     
      10
    Iter 
      100 100
    LumOrb
    DMRG 
    $D
    CIONly
 >>ENDDO

-- ----------------------------------

--- Start Module: gateway at Mon Mar 26 18:05:20 2018 
 
()()()()()()()()()()()()()()()()()()()()()()()()()()()()()()()()()()()()()()()()()()()()()()()()()()

                                              &GATEWAY

                       only a single process is used, running in SERIAL mode
                       available to each process: 5.0 GB of memory, 1 thread
()()()()()()()()()()()()()()()()()()()()()()()()()()()()()()()()()()()()()()()()()()()()()()()()()()
 
 
++    Symmetry information:
      ---------------------
 
                    Character Table for C1 
 
                             E  
                    a        1  x, y, xy, Rz, z, xz, Ry, yz, Rx, I
--
 
 
++    Basis set information:
      ----------------------
 
 
      Basis set label: C.ANO-RCC...2S1P.
 
      Electronic valence basis set:
      ------------------
      Associated Effective Charge  6.000000 au
      Associated Actual Charge     6.000000 au
      Nuclear Model: Point charge
 
      Shell  nPrim  nBasis  Cartesian Spherical Contaminant
         s      14       2        X                  
         p       9       1        X                  
 
 
      Basis set label: H.ANO-RCC...1S.
 
      Electronic valence basis set:
      ------------------
      Associated Effective Charge  1.000000 au
      Associated Actual Charge     1.000000 au
      Nuclear Model: Point charge
 
      Shell  nPrim  nBasis  Cartesian Spherical Contaminant
         s       8       1        X                  
 
 
      Basis set label: C.ANO-RCC...2S1P.
 
      Electronic valence basis set:
      ------------------
      Associated Effective Charge  6.000000 au
      Associated Actual Charge     6.000000 au
      Nuclear Model: Point charge
 
      Shell  nPrim  nBasis  Cartesian Spherical Contaminant
         s      14       2        X                  
         p       9       1        X                  
 
 
      Basis set label: H.ANO-RCC...1S.
 
      Electronic valence basis set:
      ------------------
      Associated Effective Charge  1.000000 au
      Associated Actual Charge     1.000000 au
      Nuclear Model: Point charge
 
      Shell  nPrim  nBasis  Cartesian Spherical Contaminant
         s       8       1        X                  
 
 
      Basis set label: C.ANO-RCC...2S1P.
 
      Electronic valence basis set:
      ------------------
      Associated Effective Charge  6.000000 au
      Associated Actual Charge     6.000000 au
      Nuclear Model: Point charge
 
      Shell  nPrim  nBasis  Cartesian Spherical Contaminant
         s      14       2        X                  
         p       9       1        X                  
 
 
      Basis set label: H.ANO-RCC...1S.
 
      Electronic valence basis set:
      ------------------
      Associated Effective Charge  1.000000 au
      Associated Actual Charge     1.000000 au
      Nuclear Model: Point charge
 
      Shell  nPrim  nBasis  Cartesian Spherical Contaminant
         s       8       1        X                  
 
 
      Basis set label: C.ANO-RCC...2S1P.
 
      Electronic valence basis set:
      ------------------
      Associated Effective Charge  6.000000 au
      Associated Actual Charge     6.000000 au
      Nuclear Model: Point charge
 
      Shell  nPrim  nBasis  Cartesian Spherical Contaminant
         s      14       2        X                  
         p       9       1        X                  
 
 
      Basis set label: H.ANO-RCC...1S.
 
      Electronic valence basis set:
      ------------------
      Associated Effective Charge  1.000000 au
      Associated Actual Charge     1.000000 au
      Nuclear Model: Point charge
 
      Shell  nPrim  nBasis  Cartesian Spherical Contaminant
         s       8       1        X                  
 
 
      Basis set label: C.ANO-RCC...2S1P.
 
      Electronic valence basis set:
      ------------------
      Associated Effective Charge  6.000000 au
      Associated Actual Charge     6.000000 au
      Nuclear Model: Point charge
 
      Shell  nPrim  nBasis  Cartesian Spherical Contaminant
         s      14       2        X                  
         p       9       1        X                  
 
 
      Basis set label: H.ANO-RCC...1S.
 
      Electronic valence basis set:
      ------------------
      Associated Effective Charge  1.000000 au
      Associated Actual Charge     1.000000 au
      Nuclear Model: Point charge
 
      Shell  nPrim  nBasis  Cartesian Spherical Contaminant
         s       8       1        X                  
 
 
      Basis set label: C.ANO-RCC...2S1P.
 
      Electronic valence basis set:
      ------------------
      Associated Effective Charge  6.000000 au
      Associated Actual Charge     6.000000 au
      Nuclear Model: Point charge
 
      Shell  nPrim  nBasis  Cartesian Spherical Contaminant
         s      14       2        X                  
         p       9       1        X                  
 
 
      Basis set label: H.ANO-RCC...1S.
 
      Electronic valence basis set:
      ------------------
      Associated Effective Charge  1.000000 au
      Associated Actual Charge     1.000000 au
      Nuclear Model: Point charge
 
      Shell  nPrim  nBasis  Cartesian Spherical Contaminant
         s       8       1        X                  
 
 
      Basis set label: C.ANO-RCC...2S1P.
 
      Electronic valence basis set:
      ------------------
      Associated Effective Charge  6.000000 au
      Associated Actual Charge     6.000000 au
      Nuclear Model: Point charge
 
      Shell  nPrim  nBasis  Cartesian Spherical Contaminant
         s      14       2        X                  
         p       9       1        X                  
 
 
      Basis set label: H.ANO-RCC...1S.
 
      Electronic valence basis set:
      ------------------
      Associated Effective Charge  1.000000 au
      Associated Actual Charge     1.000000 au
      Nuclear Model: Point charge
 
      Shell  nPrim  nBasis  Cartesian Spherical Contaminant
         s       8       1        X                  
 
 
      Basis set label: C.ANO-RCC...2S1P.
 
      Electronic valence basis set:
      ------------------
      Associated Effective Charge  6.000000 au
      Associated Actual Charge     6.000000 au
      Nuclear Model: Point charge
 
      Shell  nPrim  nBasis  Cartesian Spherical Contaminant
         s      14       2        X                  
         p       9       1        X                  
 
 
      Basis set label: H.ANO-RCC...1S.
 
      Electronic valence basis set:
      ------------------
      Associated Effective Charge  1.000000 au
      Associated Actual Charge     1.000000 au
      Nuclear Model: Point charge
 
      Shell  nPrim  nBasis  Cartesian Spherical Contaminant
         s       8       1        X                  
 
 
      Basis set label: C.ANO-RCC...2S1P.
 
      Electronic valence basis set:
      ------------------
      Associated Effective Charge  6.000000 au
      Associated Actual Charge     6.000000 au
      Nuclear Model: Point charge
 
      Shell  nPrim  nBasis  Cartesian Spherical Contaminant
         s      14       2        X                  
         p       9       1        X                  
 
 
      Basis set label: H.ANO-RCC...1S.
 
      Electronic valence basis set:
      ------------------
      Associated Effective Charge  1.000000 au
      Associated Actual Charge     1.000000 au
      Nuclear Model: Point charge
 
      Shell  nPrim  nBasis  Cartesian Spherical Contaminant
         s       8       1        X                  
 
 
      Basis set label: C.ANO-RCC...2S1P.
 
      Electronic valence basis set:
      ------------------
      Associated Effective Charge  6.000000 au
      Associated Actual Charge     6.000000 au
      Nuclear Model: Point charge
 
      Shell  nPrim  nBasis  Cartesian Spherical Contaminant
         s      14       2        X                  
         p       9       1        X                  
 
 
      Basis set label: H.ANO-RCC...1S.
 
      Electronic valence basis set:
      ------------------
      Associated Effective Charge  1.000000 au
      Associated Actual Charge     1.000000 au
      Nuclear Model: Point charge
 
      Shell  nPrim  nBasis  Cartesian Spherical Contaminant
         s       8       1        X                  
--
 
 
++    Molecular structure info:
      -------------------------
 
                    ************************************************ 
                    **** Cartesian Coordinates / Bohr, Angstrom **** 
                    ************************************************ 
 
     Center  Label                x              y              z                     x              y              z
        1      C1               0.473439     -10.477832       0.000000              0.250533      -5.544630       0.000000
        2      H2               2.524334     -10.615259       0.000000              1.335820      -5.617353       0.000000
        3      H3              -0.568658     -12.244781       0.000000             -0.300921      -6.479659       0.000000
        4      C4              -0.708570      -8.228733       0.000000             -0.374959      -4.354458       0.000000
        5      H5              -2.768950      -8.179850       0.000000             -1.465265      -4.328590       0.000000
        6      C6               0.562466      -5.808153       0.000000              0.297644      -3.073542       0.000000
        7      H7               2.623605      -5.840074       0.000000              1.388352      -3.090434       0.000000
        8      C8              -0.643856      -3.544843       0.000000             -0.340714      -1.875850       0.000000
        9      H9              -2.705685      -3.524109       0.000000             -1.431787      -1.864878       0.000000
       10      C10              0.606736      -1.132403       0.000000              0.321071      -0.599242       0.000000
       11      H11              2.668235      -1.150072       0.000000              1.411969      -0.608592       0.000000
       12      C12             -0.606736       1.132403       0.000000             -0.321071       0.599242       0.000000
       13      H13             -2.668235       1.150072       0.000000             -1.411969       0.608592       0.000000
       14      C14              0.643856       3.544843       0.000000              0.340714       1.875850       0.000000
       15      H15              2.705685       3.524109       0.000000              1.431787       1.864878       0.000000
       16      C16             -0.562466       5.808153       0.000000             -0.297644       3.073542       0.000000
       17      H17             -2.623605       5.840074       0.000000             -1.388352       3.090434       0.000000
       18      C18              0.708570       8.228733       0.000000              0.374959       4.354458       0.000000
       19      H19              2.768950       8.179850       0.000000              1.465265       4.328590       0.000000
       20      C20             -0.473439      10.477832       0.000000             -0.250533       5.544630       0.000000
       21      H21             -2.524334      10.615259       0.000000             -1.335820       5.617353       0.000000
       22      H22              0.568658      12.244781       0.000000              0.300921       6.479659       0.000000
 
                    ************************************************* 
                    **** InterNuclear Distances / Bohr, Angstrom **** 
                    ************************************************* 
 
     Atom centers         Bohr        Angstrom
    3 H3        1 C1      2.051359        1.085532
   22 H22      20 C20   
    2 H2        1 C1      2.055494        1.087721
   21 H21      20 C20   
    5 H5        4 C4      2.060960        1.090613
   19 H19      18 C18   
    7 H7        6 C6      2.061387        1.090839
   17 H17      16 C16   
   11 H11      10 C10     2.061574        1.090938
   13 H13      12 C12   
    9 H9        8 C8      2.061933        1.091128
   15 H15      14 C14   
    4 C4        1 C1      2.540786        1.344526
   20 C20      18 C18   
    8 C8        6 C6      2.564719        1.357191
   16 C16      14 C14   
   12 C12      10 C10     2.569409        1.359673
   10 C10       8 C8      2.717323        1.437946
   14 C14      12 C12   
    6 C6        4 C4      2.733997        1.446769
   18 C18      16 C16   
    3 H3        2 H2      3.495990        1.849998
   22 H22      21 H21   
    5 H5        1 C1      3.974142        2.103025
   20 C20      19 H19   
    9 H9        6 C6      3.987188        2.109929
   16 C16      15 H15   
   12 C12      11 H11     3.991883        2.112413
   13 H13      10 C10   
    8 C8        7 H7      3.993043        2.113027
   17 H17      14 C14   
    4 C4        2 H2      4.018354        2.126422
   21 H21      18 C18   
    4 C4        3 H3      4.018484        2.126490
   22 H22      18 C18   
   10 C10       9 H9      4.085632        2.162024
   15 H15      12 C12   
   11 H11       8 C8      4.087159        2.162832
   14 C14      13 H13   
    6 C6        5 H5      4.089410        2.164023
   19 H19      16 C16   
    7 H7        4 C4      4.099888        2.169567
   18 C18      17 H17   
    5 H5        3 H3      4.622223        2.445975
   22 H22      19 H19   
    9 H9        5 H5      4.656171        2.463939
   19 H19      15 H15   
    6 C6        1 C1      4.670528        2.471537
   20 C20      16 C16   
   13 H13       9 H9      4.674331        2.473549
   15 H15      11 H11   
   10 C10       6 C6      4.675959        2.474411
   16 C16      12 C12   
   12 C12       8 C8      4.677393        2.475170
   14 C14      10 C10   
    8 C8        4 C4      4.684337        2.478845
   18 C18      14 C14   
   11 H11       7 H7      4.690214        2.481954
   17 H17      13 H13   
    7 H7        2 H2      4.776217        2.527465
   21 H21      17 H17   
    8 C8        5 H5      5.098952        2.698249
   19 H19      14 C14   
   12 C12       9 H9      5.107709        2.702883
   15 H15      10 C10   
    9 H9        4 C4      5.110965        2.704606
   18 C18      15 H15   
    7 H7        1 C1      5.111944        2.705125
   11 H11       6 C6    
   16 C16      13 H13   
   20 C20      17 H17   
   13 H13       8 C8      5.112762        2.705557
   14 C14      11 H11   
   10 C10       7 H7      5.121516        2.710189
   17 H17      12 C12   
    6 C6        2 H2      5.192032        2.747505
   21 H21      16 C16   
--
 
 
            Nuclear Potential Energy            410.93943802 au
 
--- Stop Module:  gateway at Mon Mar 26 18:05:22 2018 /rc=0 ---
--- Start Module: seward at Mon Mar 26 18:05:22 2018 
 
()()()()()()()()()()()()()()()()()()()()()()()()()()()()()()()()()()()()()()()()()()()()()()()()()()

                                              &SEWARD

                       only a single process is used, running in SERIAL mode
                       available to each process: 5.0 GB of memory, 1 thread
()()()()()()()()()()()()()()()()()()()()()()()()()()()()()()()()()()()()()()()()()()()()()()()()()()
 
               SEWARD will generate:
                  Multipole Moment integrals up to order  2
                  Kinetic Energy integrals
                  Nuclear Attraction integrals (point charge)
                  One-Electron Hamiltonian integrals
                  Velocity integrals
                  Relativistic Douglas-Kroll-Hess integrals:
                    - Parametrization         : EXP
                    - DKH order of Hamiltonian: 2
                    - DKH order of Properties : 0
                         - multipole moment operators
                         - electric potential operators
                         - contact operators
                  Atomic mean-field integrals
                  Cholesky decomposed two-electron repulsion integrals
                   - CD Threshold:   0.10E-05
 
                   Integrals are discarded if absolute value <: 0.10E-39
                   Integral cutoff threshold is set to       <: 0.10E-39
 
            Nuclear Potential Energy            410.93943802 au
 
 
      Basis set specifications :
      Symmetry species         a  
      Basis functions           62
 
      Cholesky vectors         434
 
 
 
  Input file to MOLDEN was generated!
 
**************************************************
MEMORY WARNING: use of FLUSH operation deprecated!
please contact the developer of this module and
ask him/her to fix this!
**************************************************
**************************************************
MEMORY WARNING: use of FLUSH operation deprecated!
please contact the developer of this module and
ask him/her to fix this!
**************************************************
**************************************************
MEMORY WARNING: use of FLUSH operation deprecated!
please contact the developer of this module and
ask him/her to fix this!
**************************************************
**************************************************
MEMORY WARNING: use of FLUSH operation deprecated!
please contact the developer of this module and
ask him/her to fix this!
**************************************************
--- Stop Module:  seward at Mon Mar 26 18:06:03 2018 /rc=0 ---
--- Module seward spent 41 seconds 
*** 
--- Start Module: scf at Mon Mar 26 18:06:03 2018 
 
()()()()()()()()()()()()()()()()()()()()()()()()()()()()()()()()()()()()()()()()()()()()()()()()()()

                                                &SCF

                       only a single process is used, running in SERIAL mode
                       available to each process: 5.0 GB of memory, 1 thread
()()()()()()()()()()()()()()()()()()()()()()()()()()()()()()()()()()()()()()()()()()()()()()()()()()
 
++    Input section:
      --------------
 
      Header of the integral files:
      
       Integrals generated by seward 4.2.0  , Mon Mar 26 18:05:22 2018
 
 
      Cartesian coordinates in Angstrom:
      -----------------------------------------------------
      No.  Label        X            Y            Z        
      -----------------------------------------------------
       1   C1         0.25053300  -5.54463000   0.00000000
       2   H2         1.33582000  -5.61735300   0.00000000
       3   H3        -0.30092100  -6.47965900   0.00000000
       4   C4        -0.37495900  -4.35445800   0.00000000
       5   H5        -1.46526500  -4.32859000   0.00000000
       6   C6         0.29764400  -3.07354200   0.00000000
       7   H7         1.38835200  -3.09043400   0.00000000
       8   C8        -0.34071400  -1.87585000   0.00000000
       9   H9        -1.43178700  -1.86487800   0.00000000
      10   C10        0.32107100  -0.59924200   0.00000000
      11   H11        1.41196900  -0.60859200   0.00000000
      12   C12       -0.32107100   0.59924200   0.00000000
      13   H13       -1.41196900   0.60859200   0.00000000
      14   C14        0.34071400   1.87585000   0.00000000
      15   H15        1.43178700   1.86487800   0.00000000
      16   C16       -0.29764400   3.07354200   0.00000000
      17   H17       -1.38835200   3.09043400   0.00000000
      18   C18        0.37495900   4.35445800   0.00000000
      19   H19        1.46526500   4.32859000   0.00000000
      20   C20       -0.25053300   5.54463000   0.00000000
      21   H21       -1.33582000   5.61735300   0.00000000
      22   H22        0.30092100   6.47965900   0.00000000
      -----------------------------------------------------
      Nuclear repulsion energy =  410.93943802
--
 
++    Orbital specifications:
      -----------------------
 
      Symmetry species               1
                                     a
      Frozen orbitals                0
      Occupied orbitals             36
      Secondary orbitals            26
      Deleted orbitals               0
      Total number of orbitals      62
      Number of basis functions     62
--
 
      Molecular charge                           0.000
 
++    Optimization specifications:
      ----------------------------
 
      SCF Algorithm: LK-Cholesky
      The actual AO density is used
      Number of density matrices in core                5
      Maximum number of NDDO SCF iterations           400
      Maximum number of HF SCF iterations             400
      Threshold for SCF energy change            0.10E-08
      Threshold for density matrix               0.10E-03
      Threshold for Fock matrix                  0.15E-03
      Threshold for linear dependence            0.10E-08
      Threshold at which DIIS is turned on       0.15E+00
      Threshold at which QNR/C2DIIS is turned on 0.75E-01
      Threshold for Norm(delta) (QNR/C2DIIS)     0.20E-04
      DIIS extrapolation of the SCF procedure
      All orbitals punched on: SCFORB
--
 
      Input vectors read from INPORB
      Orbital file label: *Guess orbitals
 
 
++ Convergence information
                                   SCF        iterations: Energy and convergence statistics
 
Iter     Tot. SCF        One-elec.       Two-elec.     Energy      Max Dij or  Max Fij      DNorm      TNorm      AccCon     Time
         Energy          Energy          Energy        Change      Delta Norm                                                in Sec.
   1  -385.111182787 -1323.691047655   527.640426847   0.00E+00    0.20E+00*   0.71E-01*    0.11E+02   0.13E+03   None         2.
   2  -385.245332075 -1328.529642446   532.344872351  -0.13E+00*   0.80E-01*   0.17E-01*    0.11E+02   0.13E+03   EDIIS        1.
   3  -385.250818243 -1328.234161284   532.043905022  -0.55E-02*   0.41E-01*   0.89E-02*    0.11E+02   0.13E+03   EDIIS        1.
   4  -385.251814559 -1328.369962894   532.178710316  -0.10E-02*   0.25E-01*   0.61E-02*    0.11E+02   0.13E+03   c2DIIS       1.
   5  -385.251843826 -1328.265065133   532.073783287  -0.29E-04*   0.15E-01*   0.36E-02*    0.11E+02   0.13E+03   QNRc2DIIS    1.
   6  -385.252027014 -1328.362490497   532.171025464  -0.18E-03*   0.52E-02*   0.19E-02*    0.11E+02   0.13E+03   QNRc2DIIS    1.
   7  -385.252094957 -1328.329624395   532.138091418  -0.68E-04*   0.55E-03*   0.86E-04     0.11E+02   0.13E+03   QNRc2DIIS    1.
   8  -385.252096010 -1328.329598652   532.138064622  -0.11E-05*   0.12E-03*   0.40E-04     0.11E+02   0.13E+03   QNRc2DIIS    1.
   9  -385.252096123 -1328.329774541   532.138240398  -0.11E-06*   0.11E-04    0.23E-05     0.11E+02   0.13E+03   QNRc2DIIS    1.
  10  -385.252096079 -1328.329783467   532.138249368   0.44E-07*   0.31E-05    0.61E-06     0.11E+02   0.13E+03   QNRc2DIIS    1.
  11  -385.252096032 -1328.329788243   532.138254192   0.47E-07*   0.15E-05    0.28E-06     0.11E+02   0.13E+03   QNRc2DIIS    1.
  12  -385.252096040 -1328.329792117   532.138258056  -0.87E-08*   0.61E-06    0.76E-07     0.11E+02   0.13E+03   QNRc2DIIS    1.
  13  -385.252096074 -1328.329793298   532.138259204  -0.33E-07*   0.64E-07    0.13E-07     0.11E+02   0.13E+03   QNRc2DIIS    1.
  14  -385.252096091 -1328.329793404   532.138259293  -0.17E-07*   0.26E-07    0.65E-08     0.11E+02   0.13E+03   QNRc2DIIS    1.
  15  -385.252096094 -1328.329793413   532.138259299  -0.27E-08*   0.10E-07    0.18E-08     0.11E+02   0.13E+03   QNRc2DIIS    1.
  16  -385.252096094 -1328.329793410   532.138259296  -0.75E-09    0.46E-08    0.14E-08     0.11E+02   0.13E+03   QNRc2DIIS    1.
 
       Convergence after 16 Macro Iterations
--
 
 *****************************************************************************************************************************
 *                                                                                                                           *
 *                                             SCF/KS-DFT Program, Final results                                             *
 *                                                                                                                           *
 *                                                                                                                           *
 *                                                                                                                           *
 *                                                       Final Results                                                       *
 *                                                                                                                           *
 *****************************************************************************************************************************
 
::    Total SCF energy                               -385.2520960943
      One-electron energy                           -1328.3297934100
      Two-electron energy                             532.1382592957
      Nuclear repulsion energy                        410.9394380199
      Kinetic energy (interpolated)                   383.4991384846
      Virial theorem                                    1.0045709558
      Total spin, S(S+1)                                0.0000000000
      Total spin, S                                     0.0000000000
      Max non-diagonal density matrix element           0.0000000014
      Max non-diagonal Fock matrix element              0.0000000003
 
 
      All orbitals with orbital energies smaller than  E(LUMO)+0.5 are printed
 
++    Molecular orbitals:
      -------------------
 
      Title: SCF orbitals

      Molecular orbitals for symmetry species 1: a  
 
          Orbital        1         2         3         4         5         6         7         8         9        10    
          Energy      -11.3595  -11.3595  -11.3564  -11.3561  -11.3557  -11.3547  -11.3537  -11.3537  -11.3375  -11.3375
          Occ. No.      2.0000    2.0000    2.0000    2.0000    2.0000    2.0000    2.0000    2.0000    2.0000    2.0000
 
        1 C1    1s      0.0301   -0.0128   -0.0006    0.0010   -0.0010   -0.0006    0.0027   -0.0026   -0.9923    0.1205
        2 C1    2s     -0.0005    0.0002   -0.0001    0.0001   -0.0001   -0.0000    0.0001   -0.0001   -0.0005    0.0001
        3 C1    2px     0.0000   -0.0000    0.0000   -0.0000    0.0000   -0.0000    0.0000   -0.0000    0.0002   -0.0000
        4 C1    2py    -0.0001    0.0000   -0.0001    0.0001   -0.0001   -0.0000    0.0002   -0.0001   -0.0003    0.0000
        5 C1    2pz    -0.0000    0.0000    0.0000    0.0000   -0.0000   -0.0000    0.0000    0.0000    0.0000   -0.0000
        6 H2    1s     -0.0003    0.0001   -0.0000    0.0000   -0.0000   -0.0000    0.0001   -0.0001    0.0008   -0.0001
        7 H3    1s     -0.0003    0.0001   -0.0000    0.0000   -0.0000   -0.0000    0.0000   -0.0000    0.0008   -0.0001
        8 C4    1s      0.9179   -0.3899   -0.0109    0.0185   -0.0172   -0.0110    0.0442   -0.0416    0.0333   -0.0040
        9 C4    2s      0.0002   -0.0001   -0.0002    0.0002   -0.0002   -0.0001    0.0004   -0.0004    0.0007   -0.0001
       10 C4    2px     0.0002   -0.0001   -0.0000   -0.0000    0.0000    0.0000    0.0000   -0.0000    0.0001   -0.0000
       11 C4    2py    -0.0001    0.0001   -0.0002    0.0002   -0.0002   -0.0000    0.0001   -0.0001   -0.0001    0.0000
       12 C4    2pz     0.0000   -0.0000   -0.0000   -0.0000   -0.0000    0.0000    0.0000    0.0000   -0.0000    0.0000
       13 H5    1s     -0.0007    0.0003   -0.0001    0.0002   -0.0001   -0.0001    0.0001   -0.0001    0.0003   -0.0000
       14 C6    1s      0.0615   -0.0261    0.1119   -0.2004    0.1994    0.1510   -0.6835    0.6429   -0.0019    0.0002
       15 C6    2s     -0.0005    0.0002   -0.0003    0.0003   -0.0001    0.0000   -0.0004    0.0004    0.0001   -0.0000
       16 C6    2px     0.0000    0.0000   -0.0000    0.0001   -0.0001    0.0000    0.0002   -0.0001    0.0001   -0.0000
       17 C6    2py     0.0002   -0.0001   -0.0002    0.0001    0.0001    0.0001   -0.0001    0.0001   -0.0003    0.0000
       18 C6    2pz    -0.0000    0.0000   -0.0000   -0.0000   -0.0000    0.0000    0.0000   -0.0000   -0.0000   -0.0000
       19 H7    1s     -0.0003    0.0001   -0.0003    0.0004   -0.0002   -0.0001    0.0004   -0.0004    0.0002   -0.0000
       20 C8    1s      0.0069   -0.0030    0.4294   -0.6485    0.5142    0.1579    0.2321   -0.2284   -0.0000    0.0000
       21 C8    2s     -0.0002    0.0001   -0.0003   -0.0001    0.0004    0.0003    0.0005   -0.0005    0.0001   -0.0000
       22 C8    2px     0.0000   -0.0000    0.0001   -0.0002    0.0001    0.0001    0.0001   -0.0001    0.0000   -0.0000
       23 C8    2py     0.0002   -0.0001   -0.0003    0.0000    0.0002   -0.0000   -0.0001    0.0001   -0.0000    0.0000
       24 C8    2pz    -0.0000    0.0000    0.0000    0.0000    0.0000   -0.0000   -0.0000    0.0000   -0.0000   -0.0000
       25 H9    1s     -0.0002    0.0001   -0.0006    0.0006   -0.0002   -0.0001    0.0001   -0.0000    0.0000   -0.0000
       26 C10   1s      0.0003   -0.0003    0.5506   -0.1968   -0.4421   -0.6727   -0.0421    0.0930   -0.0000    0.0000
       27 C10   2s     -0.0001    0.0000   -0.0005    0.0001   -0.0003   -0.0007   -0.0000    0.0002    0.0000   -0.0000
       28 C10   2px     0.0000   -0.0000   -0.0001    0.0000    0.0001    0.0001    0.0000   -0.0001   -0.0000    0.0000
       29 C10   2py     0.0001   -0.0000    0.0000   -0.0004    0.0000    0.0000   -0.0002    0.0001   -0.0000    0.0000
       30 C10   2pz    -0.0000    0.0000    0.0000   -0.0000   -0.0000   -0.0000   -0.0000    0.0000    0.0000   -0.0000
       31 H11   1s     -0.0000    0.0000   -0.0008    0.0002    0.0002    0.0002    0.0001   -0.0001    0.0000    0.0000
       32 C12   1s     -0.0000    0.0004    0.5504    0.1980   -0.4417    0.6728   -0.0374   -0.0950    0.0000   -0.0000
       33 C12   2s     -0.0000   -0.0001   -0.0005   -0.0001   -0.0003    0.0007   -0.0000   -0.0002   -0.0000    0.0000
       34 C12   2px    -0.0000   -0.0000    0.0001    0.0000   -0.0001    0.0001   -0.0000   -0.0001    0.0000    0.0000
       35 C12   2py    -0.0000   -0.0001   -0.0000   -0.0004   -0.0000    0.0000    0.0002    0.0001   -0.0000    0.0000
       36 C12   2pz     0.0000   -0.0000   -0.0000   -0.0000   -0.0000    0.0000    0.0000    0.0000    0.0000   -0.0000
       37 H13   1s     -0.0000   -0.0000   -0.0008   -0.0002    0.0002   -0.0002    0.0001    0.0001    0.0000    0.0000
       38 C14   1s      0.0029    0.0069    0.4286    0.6484    0.5150   -0.1580    0.2206    0.2395   -0.0000   -0.0000
       39 C14   2s     -0.0001   -0.0002   -0.0003    0.0001    0.0004   -0.0003    0.0005    0.0005    0.0000    0.0001
       40 C14   2px    -0.0000   -0.0000   -0.0001   -0.0002   -0.0001    0.0001   -0.0000   -0.0001   -0.0000   -0.0000
       41 C14   2py    -0.0001   -0.0002    0.0003    0.0000   -0.0002   -0.0000    0.0001    0.0001    0.0000    0.0000
       42 C14   2pz     0.0000   -0.0000    0.0000   -0.0000    0.0000   -0.0000    0.0000    0.0000   -0.0000   -0.0000
       43 H15   1s     -0.0001   -0.0002   -0.0006   -0.0006   -0.0002    0.0001    0.0001    0.0001    0.0000    0.0000
       44 C16   1s      0.0261    0.0615    0.1117    0.2003    0.1996   -0.1510   -0.6512   -0.6757   -0.0002   -0.0019
       45 C16   2s     -0.0002   -0.0005   -0.0003   -0.0003   -0.0001   -0.0000   -0.0004   -0.0004    0.0000    0.0001
       46 C16   2px    -0.0000    0.0000    0.0000    0.0001    0.0001    0.0000   -0.0001   -0.0002   -0.0000   -0.0001
       47 C16   2py    -0.0001   -0.0002    0.0002    0.0001   -0.0001    0.0001    0.0001    0.0001    0.0000    0.0003
       48 C16   2pz    -0.0000   -0.0000    0.0000    0.0000   -0.0000    0.0000    0.0000   -0.0000   -0.0000    0.0000
       49 H17   1s     -0.0001   -0.0003   -0.0003   -0.0004   -0.0002    0.0001    0.0004    0.0004    0.0000    0.0002
       50 C18   1s      0.3899    0.9179   -0.0109   -0.0185   -0.0172    0.0110    0.0421    0.0437    0.0040    0.0333
       51 C18   2s      0.0001    0.0002   -0.0002   -0.0002   -0.0002    0.0001    0.0004    0.0004    0.0001    0.0007
       52 C18   2px    -0.0001   -0.0002    0.0000   -0.0000   -0.0000    0.0000   -0.0000   -0.0000   -0.0000   -0.0001
       53 C18   2py     0.0001    0.0001    0.0002    0.0002    0.0002   -0.0000   -0.0001   -0.0001    0.0000    0.0001
       54 C18   2pz     0.0000    0.0000   -0.0000   -0.0000    0.0000   -0.0000   -0.0000    0.0000   -0.0000   -0.0000
       55 H19   1s     -0.0003   -0.0007   -0.0001   -0.0002   -0.0001    0.0001    0.0001    0.0001    0.0000    0.0003
       56 C20   1s      0.0128    0.0301   -0.0006   -0.0010   -0.0010    0.0006    0.0026    0.0027   -0.1205   -0.9923
       57 C20   2s     -0.0002   -0.0005   -0.0001   -0.0001   -0.0001    0.0000    0.0001    0.0001   -0.0001   -0.0005
       58 C20   2px    -0.0000   -0.0000   -0.0000   -0.0000   -0.0000   -0.0000   -0.0000   -0.0000   -0.0000   -0.0002
       59 C20   2py     0.0000    0.0001    0.0001    0.0001    0.0001   -0.0000   -0.0001   -0.0002    0.0000    0.0003
       60 C20   2pz    -0.0000    0.0000    0.0000   -0.0000   -0.0000   -0.0000    0.0000    0.0000   -0.0000   -0.0000
       61 H21   1s     -0.0001   -0.0003   -0.0000   -0.0000   -0.0000    0.0000    0.0001    0.0001    0.0001    0.0008
       62 H22   1s     -0.0001   -0.0003   -0.0000   -0.0000   -0.0000    0.0000    0.0000    0.0000    0.0001    0.0008
 
          Orbital       11        12        13        14        15        16        17        18        19        20    
          Energy       -1.1575   -1.1355   -1.1008   -1.0556   -1.0047   -0.9074   -0.8415   -0.7936   -0.7867   -0.7815
          Occ. No.      2.0000    2.0000    2.0000    2.0000    2.0000    2.0000    2.0000    2.0000    2.0000    2.0000
 
        1 C1    1s     -0.0093    0.0180   -0.0246    0.0276   -0.0240    0.0193   -0.0164   -0.0040    0.0085    0.0044
        2 C1    2s      0.0753   -0.1489    0.2136   -0.2562    0.2419   -0.2431    0.2625    0.0738   -0.1925   -0.0894
        3 C1    2px    -0.0121    0.0230   -0.0306    0.0322   -0.0244    0.0056    0.0281    0.0621   -0.0865   -0.0952
        4 C1    2py     0.0259   -0.0486    0.0629   -0.0620    0.0398    0.0159   -0.0831   -0.0325    0.1159    0.0424
        5 C1    2pz    -0.0000   -0.0000    0.0000   -0.0000    0.0000   -0.0000   -0.0000   -0.0000    0.0000    0.0000
        6 H2    1s      0.0097   -0.0211    0.0346   -0.0487    0.0542   -0.0746    0.1066    0.0591   -0.1200   -0.0837
        7 H3    1s      0.0100   -0.0213    0.0344   -0.0484    0.0553   -0.0821    0.1173    0.0267   -0.1017   -0.0292
        8 C4    1s     -0.0171    0.0292   -0.0321    0.0250   -0.0114   -0.0056    0.0141    0.0075   -0.0136   -0.0090
        9 C4    2s      0.1392   -0.2415    0.2737   -0.2215    0.1043    0.0748   -0.1997   -0.1261    0.2286    0.1642
       10 C4    2px     0.0251   -0.0416    0.0435   -0.0312    0.0129   -0.0002    0.0190    0.1068   -0.0848   -0.1546
       11 C4    2py     0.0145   -0.0102   -0.0244    0.0838   -0.1263    0.1705   -0.1523    0.0051    0.0242   -0.0274
       12 C4    2pz    -0.0000    0.0000   -0.0000    0.0000   -0.0000    0.0000   -0.0000   -0.0000    0.0000    0.0000
       13 H5    1s      0.0178   -0.0343    0.0450   -0.0428    0.0232    0.0250   -0.0811   -0.0998    0.1313    0.1408
       14 C6    1s     -0.0259    0.0330   -0.0163   -0.0110    0.0252   -0.0210    0.0063   -0.0089    0.0071    0.0107
       15 C6    2s      0.2059   -0.2699    0.1415    0.0935   -0.2377    0.2421   -0.1001    0.1521   -0.1006   -0.2012
       16 C6    2px    -0.0366    0.0467   -0.0237   -0.0122    0.0280   -0.0130   -0.0049    0.1434   -0.0206   -0.1761
       17 C6    2py     0.0270   -0.0084   -0.0554    0.1076   -0.0797   -0.0742    0.1951    0.0142   -0.1315    0.0083
       18 C6    2pz    -0.0000    0.0000   -0.0000   -0.0000    0.0000   -0.0000   -0.0000   -0.0000    0.0000    0.0000
       19 H7    1s      0.0271   -0.0389    0.0230    0.0189   -0.0548    0.0739   -0.0391    0.1278   -0.0495   -0.1671
       20 C8    1s     -0.0311    0.0267    0.0062   -0.0286    0.0182    0.0128   -0.0183    0.0081    0.0057   -0.0087
       21 C8    2s      0.2497   -0.2167   -0.0564    0.2560   -0.1686   -0.1535    0.2411   -0.1469   -0.0810    0.1639
       22 C8    2px     0.0442   -0.0362   -0.0099    0.0360   -0.0197   -0.0067   -0.0092    0.1643    0.0490   -0.1426
       23 C8    2py     0.0007    0.0427   -0.0721   -0.0031    0.1247   -0.1653   -0.0103   -0.0273    0.1566    0.0310
       24 C8    2pz    -0.0000    0.0000   -0.0000   -0.0000    0.0000   -0.0000    0.0000   -0.0000    0.0000    0.0000
       25 H9    1s      0.0328   -0.0318   -0.0090    0.0502   -0.0390   -0.0473    0.0915   -0.1365   -0.0560    0.1361
       26 C10   1s     -0.0344    0.0085    0.0294   -0.0132   -0.0229    0.0185    0.0095   -0.0074   -0.0145    0.0034
       27 C10   2s      0.2756   -0.0722   -0.2478    0.1222    0.2151   -0.2158   -0.1121    0.1322    0.2525   -0.0567
       28 C10   2px    -0.0489    0.0130    0.0390   -0.0177   -0.0253    0.0098   -0.0015    0.1707    0.1245   -0.0471
       29 C10   2py     0.0152    0.0463   -0.0457   -0.0789    0.1073    0.1301   -0.1666    0.0115   -0.0746   -0.0494
       30 C10   2pz     0.0000   -0.0000    0.0000   -0.0000    0.0000   -0.0000   -0.0000   -0.0000    0.0000    0.0000
       31 H11   1s      0.0363   -0.0101   -0.0416    0.0236    0.0497   -0.0663   -0.0415    0.1336    0.1608   -0.0462
       32 C12   1s     -0.0344   -0.0085    0.0294    0.0132   -0.0229   -0.0185    0.0095    0.0074    0.0145    0.0034
       33 C12   2s      0.2756    0.0722   -0.2478   -0.1222    0.2151    0.2158   -0.1121   -0.1322   -0.2525   -0.0567
       34 C12   2px     0.0489    0.0130   -0.0390   -0.0177    0.0253    0.0098    0.0015    0.1707    0.1245    0.0471
       35 C12   2py    -0.0152    0.0463    0.0457   -0.0789   -0.1073    0.1301    0.1666    0.0115   -0.0746    0.0494
       36 C12   2pz     0.0000   -0.0000    0.0000    0.0000   -0.0000    0.0000   -0.0000   -0.0000    0.0000    0.0000
       37 H13   1s      0.0363    0.0101   -0.0416   -0.0236    0.0497    0.0663   -0.0415   -0.1336   -0.1608   -0.0462
       38 C14   1s     -0.0311   -0.0267    0.0062    0.0286    0.0182   -0.0127   -0.0183   -0.0081   -0.0057   -0.0087
       39 C14   2s      0.2497    0.2167   -0.0564   -0.2560   -0.1686    0.1535    0.2411    0.1469    0.0810    0.1639
       40 C14   2px    -0.0442   -0.0362    0.0099    0.0360    0.0197   -0.0067    0.0092    0.1643    0.0490    0.1426
       41 C14   2py    -0.0007    0.0427    0.0721   -0.0030   -0.1247   -0.1653    0.0103   -0.0273    0.1566   -0.0310
       42 C14   2pz     0.0000   -0.0000    0.0000   -0.0000   -0.0000    0.0000   -0.0000   -0.0000    0.0000   -0.0000
       43 H15   1s      0.0328    0.0318   -0.0090   -0.0502   -0.0390    0.0473    0.0915    0.1365    0.0560    0.1361
       44 C16   1s     -0.0259   -0.0330   -0.0163    0.0110    0.0252    0.0210    0.0063    0.0089   -0.0071    0.0107
       45 C16   2s      0.2059    0.2699    0.1415   -0.0935   -0.2377   -0.2421   -0.1001   -0.1521    0.1006   -0.2012
       46 C16   2px     0.0366    0.0467    0.0237   -0.0122   -0.0280   -0.0130    0.0049    0.1434   -0.0206    0.1761
       47 C16   2py    -0.0270   -0.0084    0.0554    0.1076    0.0797   -0.0742   -0.1951    0.0142   -0.1315   -0.0083
       48 C16   2pz    -0.0000    0.0000   -0.0000   -0.0000    0.0000   -0.0000    0.0000    0.0000   -0.0000   -0.0000
       49 H17   1s      0.0271    0.0389    0.0230   -0.0189   -0.0548   -0.0739   -0.0391   -0.1278    0.0495   -0.1671
       50 C18   1s     -0.0171   -0.0292   -0.0321   -0.0250   -0.0114    0.0056    0.0141   -0.0075    0.0136   -0.0090
       51 C18   2s      0.1392    0.2415    0.2737    0.2215    0.1043   -0.0748   -0.1997    0.1261   -0.2286    0.1642
       52 C18   2px    -0.0251   -0.0416   -0.0435   -0.0312   -0.0129   -0.0002   -0.0190    0.1068   -0.0848    0.1546
       53 C18   2py    -0.0145   -0.0102    0.0244    0.0838    0.1263    0.1705    0.1523    0.0051    0.0242    0.0274
       54 C18   2pz    -0.0000    0.0000   -0.0000   -0.0000    0.0000   -0.0000   -0.0000    0.0000    0.0000    0.0000
       55 H19   1s      0.0178    0.0343    0.0450    0.0428    0.0232   -0.0250   -0.0811    0.0998   -0.1313    0.1408
       56 C20   1s     -0.0093   -0.0180   -0.0246   -0.0276   -0.0240   -0.0193   -0.0164    0.0040   -0.0085    0.0044
       57 C20   2s      0.0753    0.1489    0.2136    0.2562    0.2419    0.2431    0.2625   -0.0738    0.1925   -0.0894
       58 C20   2px     0.0121    0.0230    0.0306    0.0322    0.0244    0.0056   -0.0281    0.0621   -0.0865    0.0952
       59 C20   2py    -0.0259   -0.0486   -0.0629   -0.0620   -0.0398    0.0159    0.0831   -0.0325    0.1159   -0.0424
       60 C20   2pz     0.0000   -0.0000    0.0000   -0.0000    0.0000    0.0000   -0.0000   -0.0000    0.0000    0.0000
       61 H21   1s      0.0097    0.0211    0.0346    0.0487    0.0542    0.0746    0.1066   -0.0591    0.1200   -0.0837
       62 H22   1s      0.0100    0.0213    0.0344    0.0484    0.0553    0.0821    0.1173   -0.0267    0.1017   -0.0292
 
          Orbital       21        22        23        24        25        26        27        28        29        30    
          Energy       -0.7077   -0.6951   -0.6650   -0.6575   -0.6163   -0.6113   -0.5852   -0.5727   -0.5496   -0.5407
          Occ. No.      2.0000    2.0000    2.0000    2.0000    2.0000    2.0000    2.0000    2.0000    2.0000    2.0000
 
        1 C1    1s     -0.0008   -0.0010    0.0048    0.0030   -0.0081   -0.0040    0.0054    0.0015   -0.0015    0.0000
        2 C1    2s     -0.0580   -0.0519    0.0640    0.0361   -0.0017   -0.0134   -0.0315    0.0094    0.0109    0.0000
        3 C1    2px     0.0795   -0.1838   -0.0191    0.2429   -0.0589   -0.2576    0.0180    0.2355   -0.2137   -0.0000
        4 C1    2py     0.1522    0.0425   -0.2995   -0.0234    0.3383   -0.0025   -0.2416    0.1035   -0.0571   -0.0000
        5 C1    2pz     0.0000    0.0000   -0.0000   -0.0000    0.0000    0.0000   -0.0000   -0.0000    0.0000    0.1084
        6 H2    1s      0.0187   -0.1355    0.0256    0.1760   -0.0570   -0.1925    0.0113    0.1885   -0.1784   -0.0000
        7 H3    1s     -0.1250    0.0127    0.2004   -0.0546   -0.1856    0.0966    0.1356   -0.1682    0.1454    0.0000
        8 C4    1s     -0.0047   -0.0015    0.0077   -0.0004   -0.0063   -0.0005    0.0035    0.0018   -0.0034   -0.0000
        9 C4    2s      0.0222    0.0754   -0.0517   -0.0123   -0.0105   -0.0544    0.0205    0.0545   -0.0312    0.0000
       10 C4    2px     0.1894   -0.1396   -0.1951    0.1012    0.1821    0.0219   -0.1280   -0.0992    0.1973    0.0000
       11 C4    2py     0.0201   -0.1571    0.1423    0.2003   -0.2844   -0.1630    0.2013    0.0033    0.0304    0.0000
       12 C4    2pz    -0.0000    0.0000    0.0000   -0.0000   -0.0000    0.0000    0.0000   -0.0000    0.0000    0.1692
       13 H5    1s     -0.0985    0.1131    0.0981   -0.0662   -0.1350   -0.0448    0.1134    0.1027   -0.1818   -0.0000
       14 C6    1s      0.0039    0.0019   -0.0066   -0.0017   -0.0008    0.0028    0.0057   -0.0036   -0.0008   -0.0000
       15 C6    2s      0.0179   -0.0287    0.0874   -0.0586   -0.0575    0.0930    0.0021   -0.0432    0.0160    0.0000
       16 C6    2px     0.1498    0.0876   -0.1070   -0.1961   -0.0503    0.2042    0.1872   -0.1508   -0.0555   -0.0000
       17 C6    2py    -0.1999    0.1426    0.0839   -0.1611    0.1828    0.0620   -0.2466    0.1525   -0.1335   -0.0000
       18 C6    2pz    -0.0000    0.0000    0.0000   -0.0000   -0.0000    0.0000    0.0000   -0.0000    0.0000    0.2548
       19 H7    1s      0.0953    0.0380   -0.0271   -0.1494   -0.0662    0.1873    0.1485   -0.1460   -0.0321   -0.0000
       20 C8    1s      0.0032   -0.0038    0.0015    0.0033   -0.0023    0.0027    0.0032   -0.0070    0.0027   -0.0000
       21 C8    2s     -0.0135   -0.0284   -0.1192    0.0217    0.0933    0.0173    0.0123   -0.0139   -0.0309    0.0000
       22 C8    2px    -0.0381    0.2369    0.0528   -0.1659   -0.0460   -0.1135   -0.0820    0.3034   -0.1780    0.0000
       23 C8    2py     0.2460    0.0342   -0.2085   -0.0133   -0.1839   -0.0350    0.3227   -0.0371   -0.0551    0.0000
       24 C8    2pz    -0.0000    0.0000    0.0000   -0.0000   -0.0000    0.0000    0.0000   -0.0000    0.0000    0.2958
       25 H9    1s      0.0170   -0.1527   -0.0887    0.1146    0.0754    0.0867    0.0752   -0.2463    0.1395   -0.0000
       26 C10   1s     -0.0041    0.0033   -0.0025    0.0002    0.0040   -0.0060    0.0005   -0.0020    0.0055   -0.0000
       27 C10   2s      0.0196    0.0278    0.0484    0.0956   -0.0599   -0.0494   -0.0269   -0.0261   -0.0049    0.0000
       28 C10   2px    -0.1909    0.1312    0.0276    0.1540    0.1084   -0.2204   -0.0368   -0.1367    0.3191   -0.0000
       29 C10   2py    -0.1124   -0.2075    0.2271    0.0480    0.0925    0.2277   -0.2517   -0.0865   -0.0493   -0.0000
       30 C10   2pz     0.0000    0.0000   -0.0000   -0.0000   -0.0000    0.0000    0.0000   -0.0000    0.0000    0.3281
       31 H11   1s     -0.1017    0.0904    0.0387    0.1412    0.0439   -0.1806   -0.0357   -0.1203    0.2792   -0.0000
       32 C12   1s      0.0041    0.0033   -0.0025   -0.0002   -0.0040   -0.0060    0.0005    0.0020    0.0055   -0.0000
       33 C12   2s     -0.0196    0.0278    0.0484   -0.0956    0.0599   -0.0494   -0.0269    0.0261   -0.0049   -0.0000
       34 C12   2px    -0.1909   -0.1312   -0.0276    0.1540    0.1084    0.2204    0.0368   -0.1367   -0.3191    0.0000
       35 C12   2py    -0.1124    0.2075   -0.2271    0.0480    0.0925   -0.2277    0.2517   -0.0865    0.0493   -0.0000
       36 C12   2pz     0.0000   -0.0000   -0.0000   -0.0000    0.0000    0.0000    0.0000   -0.0000    0.0000    0.3281
       37 H13   1s      0.1017    0.0904    0.0387   -0.1412   -0.0439   -0.1806   -0.0357    0.1203    0.2792   -0.0000
       38 C14   1s     -0.0032   -0.0038    0.0015   -0.0033    0.0023    0.0027    0.0032    0.0070    0.0027    0.0000
       39 C14   2s      0.0135   -0.0284   -0.1192   -0.0217   -0.0933    0.0173    0.0123    0.0139   -0.0309    0.0000
       40 C14   2px    -0.0381   -0.2369   -0.0528   -0.1659   -0.0460    0.1135    0.0820    0.3034    0.1780    0.0000
       41 C14   2py     0.2460   -0.0342    0.2085   -0.0133   -0.1839    0.0350   -0.3227   -0.0371    0.0551   -0.0000
       42 C14   2pz     0.0000   -0.0000   -0.0000    0.0000    0.0000    0.0000    0.0000   -0.0000    0.0000    0.2958
       43 H15   1s     -0.0170   -0.1527   -0.0887   -0.1146   -0.0754    0.0867    0.0751    0.2462    0.1395    0.0000
       44 C16   1s     -0.0039    0.0019   -0.0066    0.0017    0.0008    0.0028    0.0057    0.0036   -0.0008    0.0000
       45 C16   2s     -0.0179   -0.0287    0.0874    0.0586    0.0575    0.0930    0.0021    0.0432    0.0160   -0.0000
       46 C16   2px     0.1498   -0.0876    0.1070   -0.1961   -0.0503   -0.2042   -0.1872   -0.1508    0.0555   -0.0000
       47 C16   2py    -0.1999   -0.1426   -0.0839   -0.1611    0.1828   -0.0620    0.2466    0.1525    0.1335   -0.0000
       48 C16   2pz     0.0000   -0.0000   -0.0000    0.0000    0.0000   -0.0000    0.0000   -0.0000    0.0000    0.2548
       49 H17   1s     -0.0953    0.0380   -0.0271    0.1494    0.0662    0.1873    0.1485    0.1460   -0.0321    0.0000
       50 C18   1s      0.0047   -0.0015    0.0077    0.0004    0.0063   -0.0005    0.0035   -0.0018   -0.0034    0.0000
       51 C18   2s     -0.0222    0.0754   -0.0517    0.0123    0.0105   -0.0544    0.0205   -0.0545   -0.0312    0.0000
       52 C18   2px     0.1894    0.1396    0.1951    0.1012    0.1821   -0.0219    0.1281   -0.0992   -0.1973    0.0000
       53 C18   2py     0.0201    0.1571   -0.1423    0.2003   -0.2844    0.1630   -0.2013    0.0033   -0.0304    0.0000
       54 C18   2pz    -0.0000   -0.0000    0.0000    0.0000   -0.0000   -0.0000    0.0000   -0.0000    0.0000    0.1692
       55 H19   1s      0.0985    0.1131    0.0981    0.0662    0.1350   -0.0448    0.1134   -0.1027   -0.1818    0.0000
       56 C20   1s      0.0008   -0.0010    0.0048   -0.0030    0.0081   -0.0040    0.0054   -0.0015   -0.0015    0.0000
       57 C20   2s      0.0580   -0.0519    0.0640   -0.0361    0.0017   -0.0134   -0.0315   -0.0094    0.0109   -0.0000
       58 C20   2px     0.0795    0.1838    0.0191    0.2429   -0.0589    0.2576   -0.0180    0.2355    0.2137   -0.0000
       59 C20   2py     0.1522   -0.0425    0.2995   -0.0234    0.3383    0.0025    0.2416    0.1035    0.0571   -0.0000
       60 C20   2pz    -0.0000    0.0000    0.0000    0.0000   -0.0000   -0.0000   -0.0000   -0.0000    0.0000    0.1084
       61 H21   1s     -0.0187   -0.1355    0.0256   -0.1760    0.0570   -0.1925    0.0113   -0.1885   -0.1784    0.0000
       62 H22   1s      0.1250    0.0127    0.2004    0.0546    0.1856    0.0966    0.1356    0.1682    0.1454   -0.0000
 
          Orbital       31        32        33        34        35        36        37        38        39        40    
          Energy       -0.5354   -0.5295   -0.5101   -0.4600   -0.3911   -0.3103    0.0316    0.1264    0.2162    0.2859
          Occ. No.      2.0000    2.0000    2.0000    2.0000    2.0000    2.0000    0.0000    0.0000    0.0000    0.0000
 
        1 C1    1s     -0.0003   -0.0008   -0.0000    0.0000   -0.0000    0.0000   -0.0000    0.0000   -0.0000   -0.0000
        2 C1    2s      0.0266   -0.0153   -0.0000    0.0000   -0.0000    0.0000    0.0000   -0.0000    0.0000   -0.0000
        3 C1    2px    -0.2063    0.1474   -0.0000    0.0000   -0.0000   -0.0000    0.0000   -0.0000    0.0000   -0.0000
        4 C1    2py    -0.0563    0.0715   -0.0000    0.0000   -0.0000    0.0000   -0.0000    0.0000   -0.0000    0.0000
        5 C1    2pz     0.0000   -0.0000   -0.2187    0.3179   -0.3732    0.3122   -0.3637    0.4790   -0.4497    0.3376
        6 H2    1s     -0.1779    0.1317   -0.0000    0.0000   -0.0000    0.0000   -0.0000    0.0000   -0.0000    0.0000
        7 H3    1s      0.1550   -0.1338    0.0000   -0.0000   -0.0000    0.0000   -0.0000    0.0000   -0.0000    0.0000
        8 C4    1s     -0.0027    0.0014   -0.0000   -0.0000    0.0000   -0.0000    0.0000   -0.0000    0.0000   -0.0000
        9 C4    2s      0.0158   -0.0349    0.0000   -0.0000    0.0000   -0.0000    0.0000   -0.0000    0.0000   -0.0000
       10 C4    2px     0.2694   -0.2071    0.0000   -0.0000    0.0000   -0.0000    0.0000   -0.0000    0.0000   -0.0000
       11 C4    2py     0.1019   -0.1272    0.0000    0.0000   -0.0000    0.0000   -0.0000    0.0000   -0.0000    0.0000
       12 C4    2pz    -0.0000   -0.0000   -0.3035    0.3597   -0.3063    0.1604    0.1669   -0.3894    0.5350   -0.5101
       13 H5    1s     -0.2384    0.1760   -0.0000    0.0000    0.0000   -0.0000    0.0000   -0.0000    0.0000   -0.0000
       14 C6    1s     -0.0030    0.0011    0.0000   -0.0000    0.0000   -0.0000    0.0000   -0.0000   -0.0000    0.0000
       15 C6    2s      0.0532   -0.0413    0.0000    0.0000   -0.0000    0.0000   -0.0000    0.0000   -0.0000    0.0000
       16 C6    2px    -0.2674    0.2210   -0.0000    0.0000   -0.0000    0.0000   -0.0000    0.0000    0.0000   -0.0000
       17 C6    2py    -0.0968    0.1124   -0.0000    0.0000   -0.0000    0.0000    0.0000   -0.0000    0.0000   -0.0000
       18 C6    2pz    -0.0000   -0.0000   -0.3263    0.1314    0.2166   -0.3871    0.4350   -0.2478   -0.2286    0.5482
       19 H7    1s     -0.2192    0.1927   -0.0000    0.0000   -0.0000    0.0000   -0.0000    0.0000   -0.0000    0.0000
       20 C8    1s     -0.0017    0.0011    0.0000   -0.0000   -0.0000    0.0000   -0.0000    0.0000   -0.0000    0.0000
       21 C8    2s     -0.0024   -0.0479   -0.0000    0.0000   -0.0000    0.0000   -0.0000    0.0000   -0.0000    0.0000
       22 C8    2px     0.1670   -0.2178    0.0000   -0.0000    0.0000   -0.0000    0.0000   -0.0000    0.0000   -0.0000
       23 C8    2py     0.0028   -0.1147    0.0000   -0.0000    0.0000   -0.0000    0.0000    0.0000   -0.0000    0.0000
       24 C8    2pz    -0.0000    0.0000   -0.2702   -0.0676    0.3603   -0.2933   -0.3140    0.4788   -0.1264   -0.4351
       25 H9    1s     -0.1623    0.1897   -0.0000    0.0000   -0.0000    0.0000    0.0000   -0.0000    0.0000   -0.0000
       26 C10   1s     -0.0010    0.0008    0.0000   -0.0000    0.0000   -0.0000    0.0000   -0.0000    0.0000   -0.0000
       27 C10   2s      0.0398   -0.0493    0.0000   -0.0000    0.0000   -0.0000    0.0000   -0.0000    0.0000   -0.0000
       28 C10   2px    -0.0757    0.2126   -0.0000    0.0000   -0.0000    0.0000   -0.0000   -0.0000    0.0000   -0.0000
       29 C10   2py    -0.0722    0.1182   -0.0000    0.0000   -0.0000    0.0000   -0.0000    0.0000   -0.0000    0.0000
       30 C10   2pz    -0.0000    0.0000   -0.0706   -0.3365    0.1245    0.3767   -0.4142   -0.1935    0.4972    0.1360
       31 H11   1s     -0.0469    0.1849   -0.0000    0.0000   -0.0000    0.0000   -0.0000    0.0000   -0.0000    0.0000
       32 C12   1s      0.0010    0.0008    0.0000   -0.0000    0.0000   -0.0000    0.0000   -0.0000    0.0000   -0.0000
       33 C12   2s     -0.0398   -0.0493    0.0000   -0.0000    0.0000   -0.0000    0.0000   -0.0000    0.0000   -0.0000
       34 C12   2px    -0.0757   -0.2126    0.0000    0.0000   -0.0000    0.0000   -0.0000    0.0000   -0.0000   -0.0000
       35 C12   2py    -0.0722   -0.1182    0.0000   -0.0000    0.0000   -0.0000   -0.0000    0.0000   -0.0000    0.0000
       36 C12   2pz    -0.0000    0.0000    0.0706   -0.3365   -0.1245    0.3767    0.4142   -0.1935   -0.4972    0.1360
       37 H13   1s      0.0469    0.1849   -0.0000   -0.0000   -0.0000    0.0000   -0.0000    0.0000   -0.0000    0.0000
       38 C14   1s      0.0017    0.0011    0.0000   -0.0000    0.0000   -0.0000    0.0000   -0.0000    0.0000   -0.0000
       39 C14   2s      0.0024   -0.0479    0.0000   -0.0000    0.0000   -0.0000    0.0000   -0.0000    0.0000   -0.0000
       40 C14   2px     0.1670    0.2178   -0.0000   -0.0000    0.0000   -0.0000    0.0000   -0.0000    0.0000   -0.0000
       41 C14   2py     0.0028    0.1147   -0.0000    0.0000   -0.0000    0.0000    0.0000   -0.0000    0.0000   -0.0000
       42 C14   2pz    -0.0000    0.0000    0.2702   -0.0676   -0.3603   -0.2933    0.3140    0.4788    0.1264   -0.4351
       43 H15   1s      0.1623    0.1897   -0.0000   -0.0000    0.0000   -0.0000   -0.0000    0.0000   -0.0000    0.0000
       44 C16   1s      0.0030    0.0011   -0.0000    0.0000   -0.0000    0.0000    0.0000   -0.0000    0.0000    0.0000
       45 C16   2s     -0.0532   -0.0413   -0.0000    0.0000   -0.0000    0.0000   -0.0000    0.0000   -0.0000    0.0000
       46 C16   2px    -0.2674   -0.2210    0.0000    0.0000   -0.0000    0.0000   -0.0000    0.0000   -0.0000   -0.0000
       47 C16   2py    -0.0968   -0.1124    0.0000   -0.0000    0.0000   -0.0000    0.0000   -0.0000    0.0000   -0.0000
       48 C16   2pz    -0.0000    0.0000    0.3263    0.1314   -0.2166   -0.3871   -0.4350   -0.2478    0.2286    0.5482
       49 H17   1s      0.2192    0.1927   -0.0000   -0.0000    0.0000   -0.0000    0.0000   -0.0000    0.0000   -0.0000
       50 C18   1s      0.0027    0.0014    0.0000   -0.0000    0.0000   -0.0000    0.0000   -0.0000    0.0000   -0.0000
       51 C18   2s     -0.0158   -0.0349    0.0000   -0.0000    0.0000   -0.0000   -0.0000    0.0000   -0.0000    0.0000
       52 C18   2px     0.2694    0.2071   -0.0000    0.0000    0.0000   -0.0000    0.0000   -0.0000    0.0000   -0.0000
       53 C18   2py     0.1019    0.1272   -0.0000    0.0000   -0.0000    0.0000   -0.0000    0.0000   -0.0000    0.0000
       54 C18   2pz    -0.0000    0.0000    0.3035    0.3597    0.3063    0.1604   -0.1669   -0.3894   -0.5350   -0.5101
       55 H19   1s      0.2384    0.1760   -0.0000    0.0000   -0.0000    0.0000    0.0000    0.0000   -0.0000    0.0000
       56 C20   1s      0.0003   -0.0008    0.0000   -0.0000    0.0000   -0.0000    0.0000   -0.0000    0.0000   -0.0000
       57 C20   2s     -0.0266   -0.0153   -0.0000    0.0000    0.0000   -0.0000    0.0000   -0.0000    0.0000   -0.0000
       58 C20   2px    -0.2063   -0.1474    0.0000   -0.0000    0.0000    0.0000   -0.0000    0.0000   -0.0000    0.0000
       59 C20   2py    -0.0563   -0.0715    0.0000   -0.0000    0.0000   -0.0000    0.0000   -0.0000    0.0000   -0.0000
       60 C20   2pz    -0.0000    0.0000    0.2187    0.3179    0.3732    0.3122    0.3637    0.4790    0.4497    0.3376
       61 H21   1s      0.1779    0.1317   -0.0000    0.0000   -0.0000    0.0000   -0.0000    0.0000   -0.0000    0.0000
       62 H22   1s     -0.1550   -0.1338    0.0000   -0.0000   -0.0000    0.0000   -0.0000    0.0000   -0.0000    0.0000
 
          Orbital       41        42        43        44        45        46        47    
          Energy        0.3288    0.4193    0.4641    0.5047    0.5189    0.5206    0.5276
          Occ. No.      0.0000    0.0000    0.0000    0.0000    0.0000    0.0000    0.0000
 
        1 C1    1s      0.0000   -0.0148    0.0154   -0.0306   -0.0818    0.0973    0.0157
        2 C1    2s      0.0000   -0.1312    0.1187   -0.2372   -0.6483    0.7904    0.0751
        3 C1    2px     0.0000    0.2130   -0.3336    0.2666   -0.0520    0.2335    0.0952
        4 C1    2py    -0.0000    0.0290   -0.1436    0.2871    0.3545   -0.0887   -0.1443
        5 C1    2pz    -0.1793    0.0000   -0.0000    0.0000   -0.0000    0.0000    0.0000
        6 H2    1s     -0.0000   -0.1819    0.3185   -0.1921    0.3390   -0.6314   -0.1206
        7 H3    1s     -0.0000    0.2520   -0.4012    0.5256    0.5905   -0.3325   -0.0591
        8 C4    1s      0.0000    0.0142    0.0089   -0.0281   -0.0379   -0.0196    0.0965
        9 C4    2s      0.0000    0.1200    0.0806   -0.2013   -0.2380   -0.2079    0.7892
       10 C4    2px     0.0000    0.3035   -0.4520    0.3794    0.1996    0.0571   -0.1414
       11 C4    2py    -0.0000    0.1313   -0.1145    0.0628   -0.1129    0.1899    0.3207
       12 C4    2pz     0.3090   -0.0000    0.0000   -0.0000    0.0000   -0.0000   -0.0000
       13 H5    1s      0.0000    0.3009   -0.5547    0.4981    0.2591    0.1808   -0.5306
       14 C6    1s     -0.0000   -0.0172    0.0093   -0.0377   -0.0487    0.0064   -0.0723
       15 C6    2s     -0.0000   -0.1431    0.0483   -0.3015   -0.3853    0.0980   -0.6285
       16 C6    2px     0.0000    0.3650   -0.3573   -0.0100   -0.2196   -0.0246    0.0075
       17 C6    2py     0.0000    0.0405   -0.1229    0.0487   -0.1809    0.1843    0.2777
       18 C6    2pz    -0.4460    0.0000   -0.0000    0.0000   -0.0000    0.0000    0.0000
       19 H7    1s     -0.0000   -0.3706    0.4217    0.0985    0.3761   -0.0335    0.3168
       20 C8    1s     -0.0000    0.0181    0.0092    0.0260    0.0329   -0.0809    0.0176
       21 C8    2s     -0.0000    0.1475    0.0839    0.2504    0.2677   -0.6427    0.2105
       22 C8    2px     0.0000    0.4164   -0.3107   -0.1054   -0.1845    0.0869    0.1726
       23 C8    2py    -0.0000    0.1014    0.0459   -0.0999   -0.2673   -0.1119    0.1419
       24 C8    2pz     0.5253   -0.0000    0.0000   -0.0000    0.0000   -0.0000   -0.0000
       25 H9    1s      0.0000    0.4231   -0.3863   -0.2790   -0.3294    0.3650    0.0818
       26 C10   1s      0.0000   -0.0181    0.0046   -0.0450    0.0346    0.0019   -0.0759
       27 C10   2s      0.0000   -0.1475    0.0261   -0.4075    0.2442    0.0526   -0.6377
       28 C10   2px     0.0000    0.4385   -0.0745   -0.3101    0.0702   -0.2213    0.0381
       29 C10   2py    -0.0000    0.0730   -0.1061   -0.0477   -0.1164   -0.2507   -0.0275
       30 C10   2pz    -0.5755    0.0000   -0.0000    0.0000   -0.0000    0.0000    0.0000
       31 H11   1s     -0.0000   -0.4533    0.0923    0.5486   -0.1409    0.2064    0.2457
       32 C12   1s      0.0000    0.0181    0.0046    0.0450    0.0346   -0.0019    0.0759
       33 C12   2s      0.0000    0.1475    0.0261    0.4075    0.2442   -0.0526    0.6377
       34 C12   2px     0.0000    0.4385    0.0745   -0.3101   -0.0702   -0.2213    0.0381
       35 C12   2py    -0.0000    0.0730    0.1061   -0.0477    0.1164   -0.2507   -0.0275
       36 C12   2pz     0.5755   -0.0000    0.0000   -0.0000    0.0000   -0.0000   -0.0000
       37 H13   1s      0.0000    0.4533    0.0923   -0.5486   -0.1409   -0.2065   -0.2457
       38 C14   1s      0.0000   -0.0181    0.0092   -0.0260    0.0329    0.0809   -0.0176
       39 C14   2s     -0.0000   -0.1475    0.0839   -0.2504    0.2677    0.6427   -0.2105
       40 C14   2px     0.0000    0.4164    0.3107   -0.1054    0.1845    0.0869    0.1726
       41 C14   2py     0.0000    0.1014   -0.0459   -0.0999    0.2673   -0.1119    0.1419
       42 C14   2pz    -0.5253    0.0000   -0.0000    0.0000   -0.0000    0.0000    0.0000
       43 H15   1s     -0.0000   -0.4231   -0.3863    0.2790   -0.3294   -0.3650   -0.0818
       44 C16   1s      0.0000    0.0172    0.0093    0.0377   -0.0487   -0.0064    0.0723
       45 C16   2s      0.0000    0.1431    0.0483    0.3015   -0.3853   -0.0980    0.6285
       46 C16   2px     0.0000    0.3650    0.3573   -0.0100    0.2196   -0.0246    0.0075
       47 C16   2py     0.0000    0.0405    0.1229    0.0487    0.1809    0.1843    0.2777
       48 C16   2pz     0.4460   -0.0000    0.0000   -0.0000   -0.0000    0.0000    0.0000
       49 H17   1s      0.0000    0.3706    0.4217   -0.0985    0.3761    0.0335   -0.3168
       50 C18   1s     -0.0000   -0.0142    0.0089    0.0281   -0.0379    0.0196   -0.0965
       51 C18   2s     -0.0000   -0.1200    0.0806    0.2013   -0.2380    0.2079   -0.7892
       52 C18   2px     0.0000    0.3035    0.4520    0.3794   -0.1996    0.0571   -0.1414
       53 C18   2py     0.0000    0.1313    0.1145    0.0628    0.1129    0.1899    0.3207
       54 C18   2pz    -0.3090    0.0000   -0.0000    0.0000    0.0000   -0.0000   -0.0000
       55 H19   1s     -0.0000   -0.3009   -0.5547   -0.4981    0.2591   -0.1808    0.5306
       56 C20   1s      0.0000    0.0148    0.0154    0.0306   -0.0818   -0.0973   -0.0157
       57 C20   2s      0.0000    0.1312    0.1187    0.2372   -0.6483   -0.7904   -0.0751
       58 C20   2px     0.0000    0.2130    0.3336    0.2666    0.0520    0.2335    0.0952
       59 C20   2py     0.0000    0.0290    0.1436    0.2871   -0.3545   -0.0887   -0.1443
       60 C20   2pz     0.1793   -0.0000    0.0000   -0.0000   -0.0000   -0.0000   -0.0000
       61 H21   1s     -0.0000    0.1819    0.3185    0.1921    0.3390    0.6314    0.1206
       62 H22   1s     -0.0000   -0.2520   -0.4012   -0.5256    0.5905    0.3325    0.0591
--
 
 
++    Molecular charges:
      ------------------
 
      Mulliken charges per centre and basis function type
      ---------------------------------------------------
 
             C1      H2      H3      C4      H5      C6      H7      C8      H9      C10     H11     C12   
      1s     2.0003  0.8431  0.8370  2.0002  0.8386  2.0002  0.8436  2.0002  0.8432  2.0002  0.8432  2.0002
      2s     1.1771  0.0000  0.0000  1.1202  0.0000  1.1188  0.0000  1.1169  0.0000  1.1170  0.0000  1.1170
      2px    1.0868  0.0000  0.0000  1.0708  0.0000  1.0632  0.0000  1.0650  0.0000  1.0645  0.0000  1.0645
      2pz    1.0110  0.0000  0.0000  0.9920  0.0000  0.9991  0.0000  0.9985  0.0000  0.9994  0.0000  0.9994
      2py    1.0455  0.0000  0.0000  0.9795  0.0000  0.9734  0.0000  0.9765  0.0000  0.9750  0.0000  0.9750
      Total  6.3207  0.8431  0.8370  6.1627  0.8386  6.1547  0.8436  6.1571  0.8432  6.1561  0.8432  6.1561
 
      N-E   -0.3207  0.1569  0.1630 -0.1627  0.1614 -0.1547  0.1564 -0.1571  0.1568 -0.1561  0.1568 -0.1561
 
             H13     C14     H15     C16     H17     C18     H19     C20     H21     H22   
      1s     0.8432  2.0002  0.8432  2.0002  0.8436  2.0002  0.8386  2.0003  0.8431  0.8370
      2s     0.0000  1.1169  0.0000  1.1188  0.0000  1.1202  0.0000  1.1771  0.0000  0.0000
      2px    0.0000  1.0650  0.0000  1.0632  0.0000  1.0708  0.0000  1.0868  0.0000  0.0000
      2pz    0.0000  0.9985  0.0000  0.9991  0.0000  0.9920  0.0000  1.0110  0.0000  0.0000
      2py    0.0000  0.9765  0.0000  0.9734  0.0000  0.9795  0.0000  1.0455  0.0000  0.0000
      Total  0.8432  6.1571  0.8432  6.1547  0.8436  6.1627  0.8386  6.3207  0.8431  0.8370
 
      N-E    0.1568 -0.1571  0.1568 -0.1547  0.1564 -0.1627  0.1614 -0.3207  0.1569  0.1630
 
      Total electronic charge=   72.000000
 
      Total            charge=   -0.000000
--
 
 
  Input file to MOLDEN was generated!
 
 
++    Static properties:
      ------------------
 
 
      LoProp Charges per center
 

                   C1       H2       H3       C4       H5       C6       H7       C8       H9       C10   
      Nuclear      6.0000   1.0000   1.0000   6.0000   1.0000   6.0000   1.0000   6.0000   1.0000   6.0000
      Electronic  -6.2187  -0.8977  -0.8931  -6.0942  -0.8977  -6.0990  -0.9007  -6.0992  -0.9003  -6.0990
 
      Total       -0.2187   0.1023   0.1069  -0.0942   0.1023  -0.0990   0.0993  -0.0992   0.0997  -0.0990
 

                   H11      C12      H13      C14      H15      C16      H17      C18      H19      C20   
      Nuclear      1.0000   6.0000   1.0000   6.0000   1.0000   6.0000   1.0000   6.0000   1.0000   6.0000
      Electronic  -0.9004  -6.0990  -0.9004  -6.0992  -0.9003  -6.0990  -0.9007  -6.0942  -0.8977  -6.2187
 
      Total        0.0996  -0.0990   0.0996  -0.0992   0.0997  -0.0990   0.0993  -0.0942   0.1023  -0.2187
 

                   H21      H22   
      Nuclear      1.0000   1.0000
      Electronic  -0.8977  -0.8931
 
      Total        0.1023   0.1069
--
 
 
++    Natural Bond Order analysis
      ---------------------------
      Based on LoProp computed density
      -------------------------------------------------------------------------------------
      Atom A       Atom B       Bond Order | Atom A       Atom B       Bond Order
        C1           C4             0.999  |   C8           H9             0.990
        C6           C8             1.941  |   C8           C10            0.992
        C10          C12            1.937  |   C10          H11            0.990
        C14          C16            1.941  |   C12          H13            0.990
        C18          C20            0.999  |   C12          C14            0.992
        C1           H2             0.993  |   C14          H15            0.990
        C1           H3             0.993  |   C16          H17            0.990
        C4           H5             0.990  |   C16          C18            0.992
        C4           C6             0.992  |   C18          H19            0.990
        C6           H7             0.990  |   C20          H21            0.993
        C20          H22            0.993  |
      -------------------------------------------------------------------------------------
      NBO located     20.000 core electrons.
      NBO located     47.353 electrons involved in   21 bonds.
      The remaining    4.647 electrons are to be considered as diffuse
--
 
 
++    Molecular properties:
      ---------------------
 
      Charge (e):
                      =   -0.0000
      Dipole Moment (Debye):
      Origin of the operator (Ang)=    0.0000    0.0000    0.0000
                   X= -1.3478E-06               Y= -1.4010E-05               Z= -3.7861E-12           Total=  1.4075E-05
      Quadrupole Moment (Debye*Ang):
      Origin of the operator (Ang)=    0.0000   -0.0000    0.0000
                  XX= -6.3493E+01              XY= -2.1349E-02              XZ=  6.2101E-12              YY= -6.6305E+01
                  YZ=  2.3643E-11              ZZ= -7.4884E+01
      In traceless form (Debye*Ang)
                  XX=  7.1012E+00              XY= -3.2023E-02              XZ=  9.3151E-12              YY=  2.8840E+00
                  YZ=  3.5464E-11              ZZ= -9.9852E+00
--
 
 
  Input file to MOLDEN was generated!
 
 ###############################################################################
 ###############################################################################
 ###                                                                         ###
 ###                                                                         ###
 ###    RunFile label nBas                                                   ###
 ###    was used       80 times                                              ###
 ###                                                                         ###
 ###                                                                         ###
 ###############################################################################
 ###############################################################################
--- Stop Module:  scf at Mon Mar 26 18:06:22 2018 /rc=0 ---
--- Module scf spent 19 seconds 
*** 
--- Start Module: rasscf at Mon Mar 26 18:06:22 2018 
 
()()()()()()()()()()()()()()()()()()()()()()()()()()()()()()()()()()()()()()()()()()()()()()()()()()

                                              &RASSCF

                       only a single process is used, running in SERIAL mode
                       available to each process: 5.0 GB of memory, 1 thread
()()()()()()()()()()()()()()()()()()()()()()()()()()()()()()()()()()()()()()()()()()()()()()()()()()
 
 
      Header of the ONEINT file:
      --------------------------
      
      Integrals generated by seward 4.2.0  , Mon Mar 26 18:05:22 2018
 
 
      OrdInt status: non-squared
 
 
      Cartesian coordinates in Angstrom:
      -----------------------------------------------------
      No.  Label        X            Y            Z        
      -----------------------------------------------------
       1   C1         0.25053300  -5.54463000   0.00000000
       2   H2         1.33582000  -5.61735300   0.00000000
       3   H3        -0.30092100  -6.47965900   0.00000000
       4   C4        -0.37495900  -4.35445800   0.00000000
       5   H5        -1.46526500  -4.32859000   0.00000000
       6   C6         0.29764400  -3.07354200   0.00000000
       7   H7         1.38835200  -3.09043400   0.00000000
       8   C8        -0.34071400  -1.87585000   0.00000000
       9   H9        -1.43178700  -1.86487800   0.00000000
      10   C10        0.32107100  -0.59924200   0.00000000
      11   H11        1.41196900  -0.60859200   0.00000000
      12   C12       -0.32107100   0.59924200   0.00000000
      13   H13       -1.41196900   0.60859200   0.00000000
      14   C14        0.34071400   1.87585000   0.00000000
      15   H15        1.43178700   1.86487800   0.00000000
      16   C16       -0.29764400   3.07354200   0.00000000
      17   H17       -1.38835200   3.09043400   0.00000000
      18   C18        0.37495900   4.35445800   0.00000000
      19   H19        1.46526500   4.32859000   0.00000000
      20   C20       -0.25053300   5.54463000   0.00000000
      21   H21       -1.33582000   5.61735300   0.00000000
      22   H22        0.30092100   6.47965900   0.00000000
      -----------------------------------------------------
      Nuclear repulsion energy =  410.93943802
 
++    Wave function specifications:
      -----------------------------
 
      Number of closed shell electrons          62
      Number of electrons in active shells      10
      Max number of holes in RAS1 space          0
      Max nr of electrons in RAS3 space          0
      Number of inactive orbitals               31
      Number of active orbitals                 10
      Number of secondary orbitals              21
      Spin quantum number                      0.0
      State symmetry                             1
--
 
++    Orbital specifications:
      -----------------------
 
      Symmetry species                           1
                                                 a
      Frozen orbitals                            0
      Inactive orbitals                         31
      Active orbitals                           10
      RAS1 orbitals                              0
      RAS2 orbitals                             10
      RAS3 orbitals                              0
      Secondary orbitals                        21
      Deleted orbitals                           0
      Number of basis functions                 62
--
 
++    CI expansion specifications:
      ----------------------------
 
      Number of CSFs                         19404
      Number of determinants                 31878
      Number of root(s) required                 1
      Root chosen for geometry opt.              1
      CI root used                               1
         
      highest root included in the CI            1
      max. size of the explicit Hamiltonian    200
--
 
++    Optimization specifications:
      ----------------------------
 
      RASSCF algorithm: LK Cholesky
      Maximum number of macro iterations       100
      Maximum number of SX iterations          100
      Threshold for RASSCF energy            0.100E-07
      Threshold for max MO rotation          0.100E+00
      Threshold for max BLB element          0.100E-03
      Level shift parameter                  0.500E+00
      Make Quasi-Newton update
--
 
      The MO-coefficients are taken from the file:
      INPORB                                                                                                                          
      Title: SCF orbitals                                                                  
 
      Total molecular charge    0.00
 
      ************************************************************************************************************************
[...]
   33 C12   2s      0.0001    0.1477    0.0264    0.4061    0.2175   -0.0538    0.6418   -0.5000    0.5109    0.4099
   34 C12   2px     0.0000    0.4368    0.0740   -0.3101   -0.0623   -0.2182    0.0347    0.1317   -0.2171    0.0379
   35 C12   2py     0.0000    0.0725    0.1059   -0.0498    0.1025   -0.2346   -0.0348   -0.2534    0.2407    0.3547
   36 C12   2pz     0.5707   -0.0000   -0.0000   -0.0000   -0.0000    0.0000   -0.0000    0.0000   -0.0000   -0.0000
   37 H13   1s     -0.0000    0.4510    0.0913   -0.5474   -0.1216   -0.2048   -0.2513    0.3650   -0.4103   -0.2140
   38 C14   1s     -0.0000   -0.0181    0.0089   -0.0260    0.0342    0.0773   -0.0161    0.0216   -0.0351   -0.0876
   39 C14   2s     -0.0001   -0.1477    0.0819   -0.2509    0.2793    0.6162   -0.1985    0.1729   -0.3457   -0.6849
   40 C14   2px     0.0000    0.4154    0.3082   -0.1072    0.1795    0.0753    0.1762   -0.0804    0.0086   -0.1588
   41 C14   2py     0.0000    0.1002   -0.0463   -0.1021    0.2550   -0.1019    0.1400   -0.2902    0.1484    0.3367
   42 C14   2pz    -0.5223    0.0000   -0.0000    0.0000    0.0000   -0.0000    0.0000   -0.0000    0.0000    0.0000
   43 H15   1s      0.0000   -0.4215   -0.3823    0.2814   -0.3316   -0.3414   -0.0910   -0.0100    0.2414    0.4302
   44 C16   1s      0.0000    0.0173    0.0095    0.0384   -0.0487   -0.0092    0.0716    0.0559    0.0732   -0.0537
   45 C16   2s      0.0000    0.1438    0.0501    0.3071   -0.3882   -0.1195    0.6220    0.4113    0.6289   -0.3866
   46 C16   2px    -0.0000    0.3650    0.3557   -0.0142    0.2128   -0.0178    0.0095   -0.2496   -0.0578    0.3038
   47 C16   2py    -0.0000    0.0408    0.1232    0.0486    0.1708    0.1724    0.2779   -0.0446    0.3427   -0.1441
   48 C16   2pz     0.4466   -0.0000    0.0000   -0.0000    0.0000    0.0000   -0.0000    0.0000   -0.0000   -0.0000
   49 H17   1s     -0.0000    0.3702    0.4188   -0.1059    0.3699    0.0487   -0.3109   -0.4812   -0.3793    0.4310
   50 C18   1s     -0.0000   -0.0141    0.0090    0.0278   -0.0343    0.0224   -0.0962    0.0370   -0.0659    0.0005
   51 C18   2s     -0.0000   -0.1193    0.0816    0.1982   -0.2085    0.2322   -0.7862    0.3049   -0.5435    0.0533
   52 C18   2px     0.0000    0.3051    0.4522    0.3759   -0.1954    0.0593   -0.1417    0.0545    0.0510   -0.0476
   53 C18   2py     0.0000    0.1306    0.1143    0.0629    0.1120    0.1831    0.3207    0.1910    0.3236   -0.0892
   54 C18   2pz    -0.3167    0.0000   -0.0000    0.0000   -0.0000   -0.0000    0.0000   -0.0000    0.0000    0.0000
   55 H19   1s      0.0000   -0.3030   -0.5553   -0.4921    0.2402   -0.1992    0.5278   -0.1926    0.1898   -0.0861
   56 C20   1s      0.0000    0.0151    0.0155    0.0310   -0.0850   -0.0993   -0.0178   -0.0856   -0.0128   -0.0438
   57 C20   2s      0.0000    0.1333    0.1195    0.2407   -0.6758   -0.8077   -0.0925   -0.6899   -0.0663   -0.3615
   58 C20   2px     0.0000    0.2156    0.3365    0.2663    0.0546    0.2371    0.1000    0.1905    0.2943    0.0734
   59 C20   2py    -0.0000    0.0309    0.1464    0.2898   -0.3549   -0.0920   -0.1514    0.0117    0.0422   -0.2806
   60 C20   2pz     0.1877   -0.0000    0.0000    0.0000    0.0000    0.0000   -0.0000    0.0000   -0.0000   -0.0000
   61 H21   1s      0.0000    0.1835    0.3208    0.1897    0.3564    0.6436    0.1337    0.5624    0.3290    0.2424
   62 H22   1s     -0.0000   -0.2558   -0.4053   -0.5290    0.6035    0.3431    0.0713    0.2165   -0.2057    0.3871
 
 
      Orbital           51        52        53        54        55        56        57        58        59        60
      Energy        0.0000    0.0000    0.0000    0.0000    0.0000    0.0000    0.0000    0.0000    0.0000    0.0000
      Occ. No.      0.0000    0.0000    0.0000    0.0000    0.0000    0.0000    0.0000    0.0000    0.0000    0.0000
 
    1 C1    1s      0.0364    0.0515    0.0165   -0.0224    0.0046    0.0474   -0.0019   -0.0657    0.0015    0.0621
    2 C1    2s      0.3285    0.4074    0.1337   -0.1872    0.0397    0.3331   -0.0204   -0.4375    0.0219    0.3937
    3 C1    2px     0.0844    0.1711   -0.2113    0.4463   -0.5008   -0.2021   -0.5030    0.3838    0.3687   -0.3739
    4 C1    2py     0.0051    0.0366    0.3627    0.1138   -0.3931    0.5948   -0.3158   -0.5435    0.1786    0.4214
    5 C1    2pz    -0.0000   -0.0000   -0.0000    0.0000    0.0000   -0.0000    0.0000    0.0000    0.0000   -0.0000
    6 H2    1s     -0.2623   -0.3994    0.1444   -0.2755    0.3469    0.0886    0.3807   -0.1952   -0.2933    0.1977
    7 H3    1s     -0.1426   -0.0659    0.1173    0.3966   -0.5248    0.2197   -0.3985   -0.0793    0.2326    0.0258
    8 C4    1s     -0.0762   -0.0215   -0.0765    0.0744   -0.0150   -0.0784    0.0232    0.0649   -0.0364   -0.0298
    9 C4    2s     -0.6355   -0.1589   -0.5628    0.5414   -0.0914   -0.5508    0.1713    0.4323   -0.2474   -0.1842
   10 C4    2px     0.1230    0.0367    0.0141   -0.1413    0.4216   -0.2305    0.5999    0.2217   -0.4879   -0.2107
   11 C4    2py    -0.1634    0.1437    0.1284    0.0010    0.1171    0.3866    0.3564   -0.6448   -0.3823    0.6969
   12 C4    2pz     0.0000   -0.0000    0.0000    0.0000   -0.0000    0.0000   -0.0000   -0.0000   -0.0000    0.0000
   13 H5    1s      0.4963    0.1239    0.1833   -0.3056    0.3543   -0.0025    0.3904    0.0290   -0.2815   -0.1056
   14 C6    1s      0.0495   -0.0657    0.0219    0.0426   -0.0882    0.0484   -0.0485   -0.0066    0.0019   -0.0274
   15 C6    2s      0.3893   -0.5278    0.2042    0.2958   -0.6309    0.3466   -0.3397   -0.0374    0.0153   -0.1781
   16 C6    2px    -0.0067   -0.2370   -0.4878    0.2296   -0.0055   -0.3391    0.0976   -0.1003   -0.2432    0.5977
   17 C6    2py    -0.2397   -0.1054    0.1517    0.4745   -0.2693    0.2630    0.4445   -0.1701   -0.6833    0.0905
   18 C6    2pz     0.0000    0.0000   -0.0000   -0.0000    0.0000    0.0000   -0.0000   -0.0000    0.0000   -0.0000
   19 H7    1s     -0.1718    0.5545    0.2746   -0.2528    0.2069    0.1400    0.0465    0.0766    0.1752   -0.3950
   20 C8    1s      0.0597    0.0582   -0.0958   -0.0328    0.0607   -0.0217   -0.0103   -0.0422    0.0638    0.0171
   21 C8    2s      0.4654    0.4553   -0.6978   -0.2692    0.4552   -0.1443   -0.0654   -0.2942    0.4232    0.1154
   22 C8    2px    -0.3189   -0.1681    0.2412   -0.3724    0.4817    0.1160    0.0012    0.0234    0.5965   -0.3681
   23 C8    2py     0.1436   -0.1009    0.2233    0.0604   -0.1526    0.7100    0.0140   -0.4253    0.0689   -0.3483
   24 C8    2pz    -0.0000   -0.0000    0.0000    0.0000   -0.0000   -0.0000    0.0000    0.0000   -0.0000    0.0000
   25 H9    1s     -0.6009   -0.4152    0.4060   -0.1814    0.1873    0.1261    0.0071    0.1225    0.3122   -0.3220
   26 C10   1s     -0.0416    0.0587   -0.0395    0.0956   -0.0369   -0.0286    0.0691    0.0128   -0.0425   -0.0079
   27 C10   2s     -0.3320    0.4574   -0.2545    0.7287   -0.2646   -0.2140    0.4762    0.0932   -0.2840   -0.0444
   28 C10   2px    -0.1544    0.2777   -0.4876   -0.2155    0.0118    0.0980   -0.3014   -0.5651    0.1942    0.1379
   29 C10   2py     0.0953    0.1671   -0.1247    0.3636    0.2629    0.4063    0.5005   -0.3486    0.3449   -0.4771
   30 C10   2pz     0.0000    0.0000   -0.0000   -0.0000    0.0000    0.0000   -0.0000   -0.0000    0.0000   -0.0000
   31 H11   1s      0.3764   -0.5526    0.4317   -0.0910    0.0721    0.0137    0.0651    0.3863   -0.0535   -0.0999
   32 C12   1s     -0.0416   -0.0587   -0.0395   -0.0956   -0.0369    0.0286   -0.0691    0.0128   -0.0425    0.0079
   33 C12   2s     -0.3320   -0.4574   -0.2545   -0.7287   -0.2646    0.2140   -0.4762    0.0932   -0.2840    0.0444
   34 C12   2px     0.1544    0.2777    0.4876   -0.2155   -0.0118    0.0980   -0.3014    0.5651   -0.1942    0.1379
   35 C12   2py    -0.0954    0.1671    0.1247    0.3636   -0.2629    0.4063    0.5005    0.3486   -0.3449   -0.4771
   36 C12   2pz     0.0000   -0.0000   -0.0000    0.0000    0.0000   -0.0000    0.0000   -0.0000    0.0000    0.0000
   37 H13   1s      0.3764    0.5526    0.4317    0.0911    0.0721   -0.0137   -0.0651    0.3863   -0.0535    0.0999
   38 C14   1s      0.0597   -0.0582   -0.0958    0.0328    0.0607    0.0217    0.0103   -0.0422    0.0638   -0.0171
   39 C14   2s      0.4654   -0.4553   -0.6978    0.2692    0.4552    0.1443    0.0654   -0.2942    0.4232   -0.1153
   40 C14   2px     0.3189   -0.1681   -0.2412   -0.3724   -0.4817    0.1160    0.0012   -0.0234   -0.5965   -0.3681
   41 C14   2py    -0.1437   -0.1009   -0.2234    0.0604    0.1526    0.7100    0.0140    0.4253   -0.0689   -0.3483
   42 C14   2pz    -0.0000    0.0000    0.0000   -0.0000   -0.0000    0.0000   -0.0000    0.0000   -0.0000   -0.0000
   43 H15   1s     -0.6010    0.4153    0.4060    0.1814    0.1873   -0.1261   -0.0071    0.1225    0.3122    0.3220
   44 C16   1s      0.0495    0.0657    0.0219   -0.0426   -0.0882   -0.0484    0.0485   -0.0066    0.0019    0.0274
   45 C16   2s      0.3893    0.5278    0.2042   -0.2958   -0.6309   -0.3466    0.3397   -0.0374    0.0153    0.1781
   46 C16   2px     0.0067   -0.2370    0.4878    0.2297    0.0055   -0.3391    0.0976    0.1003    0.2432    0.5977
   47 C16   2py     0.2397   -0.1054   -0.1517    0.4745    0.2693    0.2630    0.4445    0.1701    0.6833    0.0905
   48 C16   2pz     0.0000   -0.0000   -0.0000    0.0000    0.0000   -0.0000    0.0000   -0.0000    0.0000    0.0000
   49 H17   1s     -0.1718   -0.5545    0.2746    0.2528    0.2069   -0.1400   -0.0465    0.0766    0.1752    0.3950
   50 C18   1s     -0.0762    0.0215   -0.0765   -0.0744   -0.0150    0.0784   -0.0232    0.0649   -0.0364    0.0298
   51 C18   2s     -0.6355    0.1589   -0.5628   -0.5414   -0.0914    0.5508   -0.1713    0.4323   -0.2474    0.1842
   52 C18   2px    -0.1230    0.0367   -0.0141   -0.1413   -0.4216   -0.2304    0.5999   -0.2217    0.4879   -0.2107
   53 C18   2py     0.1634    0.1437   -0.1284    0.0010   -0.1171    0.3866    0.3564    0.6448    0.3823    0.6969
   54 C18   2pz     0.0000    0.0000    0.0000   -0.0000   -0.0000   -0.0000    0.0000   -0.0000   -0.0000   -0.0000
   55 H19   1s      0.4963   -0.1239    0.1833    0.3056    0.3543    0.0025   -0.3904    0.0290   -0.2815    0.1056
   56 C20   1s      0.0364   -0.0515    0.0165    0.0224    0.0046   -0.0474    0.0019   -0.0657    0.0015   -0.0621
   57 C20   2s      0.3285   -0.4074    0.1337    0.1872    0.0397   -0.3331    0.0204   -0.4375    0.0219   -0.3937
   58 C20   2px    -0.0844    0.1711    0.2112    0.4463    0.5008   -0.2021   -0.5030   -0.3838   -0.3687   -0.3739
   59 C20   2py    -0.0051    0.0366   -0.3627    0.1138    0.3931    0.5948   -0.3158    0.5435   -0.1786    0.4214
   60 C20   2pz    -0.0000    0.0000   -0.0000   -0.0000    0.0000    0.0000   -0.0000    0.0000    0.0000    0.0000
   61 H21   1s     -0.2623    0.3994    0.1444    0.2755    0.3469   -0.0886   -0.3807   -0.1952   -0.2933   -0.1977
   62 H22   1s     -0.1426    0.0659    0.1173   -0.3966   -0.5248   -0.2197    0.3985   -0.0793    0.2326   -0.0258
 
 
      Orbital           61        62
      Energy        0.0000    0.0000
      Occ. No.      0.0000    0.0000
 
    1 C1    1s     -0.0520   -0.0328
    2 C1    2s     -0.3276   -0.2085
    3 C1    2px     0.1621    0.0100
    4 C1    2py    -0.3732   -0.2487
    5 C1    2pz     0.0000    0.0000
    6 H2    1s     -0.0436    0.0519
    7 H3    1s     -0.0845   -0.0866
    8 C4    1s      0.0320    0.0331
    9 C4    2s      0.1943    0.2018
   10 C4    2px     0.3983    0.3851
   11 C4    2py    -0.4245   -0.1386
   12 C4    2pz    -0.0000    0.0000
   13 H5    1s      0.2477    0.2327
   14 C6    1s      0.0562    0.0597
   15 C6    2s      0.3512    0.3761
   16 C6    2px    -0.5844   -0.2661
   17 C6    2py     0.3727    0.5584
   18 C6    2pz     0.0000   -0.0000
   19 H7    1s      0.3401    0.0773
   20 C8    1s     -0.0324   -0.0637
   21 C8    2s     -0.2045   -0.3944
   22 C8    2px    -0.0786   -0.5699
   23 C8    2py     0.6879    0.4415
   24 C8    2pz    -0.0000    0.0000
   25 H9    1s      0.0065   -0.3099
   26 C10   1s     -0.0139   -0.0727
   27 C10   2s     -0.0821   -0.4538
   28 C10   2px     0.4930    0.5091
   29 C10   2py     0.2509   -0.6197
   30 C10   2pz     0.0000    0.0000
   31 H11   1s     -0.3566   -0.2386
   32 C12   1s     -0.0139    0.0727
   33 C12   2s     -0.0821    0.4538
   34 C12   2px    -0.4930    0.5091
   35 C12   2py    -0.2509   -0.6197
   36 C12   2pz     0.0000   -0.0000
   37 H13   1s     -0.3566    0.2386
   38 C14   1s     -0.0324    0.0637
   39 C14   2s     -0.2045    0.3944
   40 C14   2px     0.0786   -0.5699
   41 C14   2py    -0.6879    0.4415
   42 C14   2pz    -0.0000   -0.0000
   43 H15   1s      0.0065    0.3099
   44 C16   1s      0.0562   -0.0597
   45 C16   2s      0.3512   -0.3760
   46 C16   2px     0.5844   -0.2660
   47 C16   2py    -0.3727    0.5584
   48 C16   2pz     0.0000    0.0000
   49 H17   1s      0.3401   -0.0773
   50 C18   1s      0.0320   -0.0331
   51 C18   2s      0.1944   -0.2018
   52 C18   2px    -0.3983    0.3851
   53 C18   2py     0.4245   -0.1385
   54 C18   2pz    -0.0000   -0.0000
   55 H19   1s      0.2477   -0.2327
   56 C20   1s     -0.0520    0.0328
   57 C20   2s     -0.3276    0.2085
   58 C20   2px    -0.1621    0.0100
   59 C20   2py     0.3732   -0.2486
   60 C20   2pz     0.0000   -0.0000
   61 H21   1s     -0.0436   -0.0519
   62 H22   1s     -0.0845    0.0866
--
 
      Von Neumann Entropy (Root  1) =  1.59448
 

      Mulliken population Analysis for root number:  1
      -----------------------------------------------
 
 
++    Molecular charges:
      ------------------
 
      Mulliken charges per centre and basis function type
      ---------------------------------------------------
 
             C1      H2      H3      C4      H5      C6      H7      C8      H9      C10     H11     C12   
      1s     2.0003  0.8441  0.8383  2.0002  0.8415  2.0002  0.8464  2.0002  0.8460  2.0002  0.8461  2.0002
      2s     1.1775  0.0000  0.0000  1.1189  0.0000  1.1183  0.0000  1.1162  0.0000  1.1165  0.0000  1.1165
      2px    1.0866  0.0000  0.0000  1.0686  0.0000  1.0614  0.0000  1.0630  0.0000  1.0625  0.0000  1.0625
      2pz    1.0061  0.0000  0.0000  0.9958  0.0000  0.9988  0.0000  0.9996  0.0000  0.9997  0.0000  0.9997
      2py    1.0454  0.0000  0.0000  0.9779  0.0000  0.9732  0.0000  0.9758  0.0000  0.9747  0.0000  0.9747
      Total  6.3159  0.8441  0.8383  6.1614  0.8415  6.1519  0.8464  6.1549  0.8460  6.1536  0.8461  6.1536
 
      N-E   -0.3159  0.1559  0.1617 -0.1614  0.1585 -0.1519  0.1536 -0.1549  0.1540 -0.1536  0.1539 -0.1536
 
             H13     C14     H15     C16     H17     C18     H19     C20     H21     H22   
      1s     0.8461  2.0002  0.8460  2.0002  0.8464  2.0002  0.8415  2.0003  0.8441  0.8383
      2s     0.0000  1.1162  0.0000  1.1183  0.0000  1.1189  0.0000  1.1775  0.0000  0.0000
      2px    0.0000  1.0630  0.0000  1.0614  0.0000  1.0686  0.0000  1.0866  0.0000  0.0000
      2pz    0.0000  0.9996  0.0000  0.9988  0.0000  0.9958  0.0000  1.0061  0.0000  0.0000
      2py    0.0000  0.9759  0.0000  0.9732  0.0000  0.9779  0.0000  1.0454  0.0000  0.0000
      Total  0.8461  6.1549  0.8460  6.1519  0.8464  6.1614  0.8415  6.3159  0.8441  0.8383
 
      N-E    0.1539 -0.1549  0.1540 -0.1519  0.1536 -0.1614  0.1585 -0.3159  0.1559  0.1617
 
      Total electronic charge=   72.000000
 
      Total            charge=   -0.000000
--
 
 

      Expectation values of various properties for root number:  1
      -----------------------------------------------------------
 
 
++    Molecular properties:
      ---------------------
 
      Charge (e):
                      =   -0.0000
      Dipole Moment (Debye):
      Origin of the operator (Ang)=    0.0000    0.0000    0.0000
                   X=  4.0251E-08               Y= -2.2229E-05               Z=  4.5870E-05           Total=  5.0972E-05
      Quadrupole Moment (Debye*Ang):
      Origin of the operator (Ang)=    0.0000   -0.0000    0.0000
                  XX= -6.3675E+01              XY=  5.3551E-02              XZ= -3.3231E-08              YY= -6.6132E+01
                  YZ=  5.0990E-08              ZZ= -7.4437E+01
      In traceless form (Debye*Ang)
                  XX=  6.6100E+00              XY=  8.0326E-02              XZ= -4.9847E-08              YY=  2.9244E+00
                  YZ=  7.6484E-08              ZZ= -9.5344E+00
--
 

      LoProp population Analysis for root number:  1
      -----------------------------------------------
 
 
++    LoProp Analysis:
      ----------------
 
 
 
  Input file to MOLDEN was generated!
 
 
++    Static properties:
      ------------------
 
 
      LoProp Charges per center
 

                   C1       H2       H3       C4       H5       C6       H7       C8       H9       C10   
      Nuclear      6.0000   1.0000   1.0000   6.0000   1.0000   6.0000   1.0000   6.0000   1.0000   6.0000
      Electronic  -6.2136  -0.8984  -0.8940  -6.0949  -0.8996  -6.0970  -0.9026  -6.0981  -0.9022  -6.0974
 
      Total       -0.2136   0.1016   0.1060  -0.0949   0.1004  -0.0970   0.0974  -0.0981   0.0978  -0.0974
 

                   H11      C12      H13      C14      H15      C16      H17      C18      H19      C20   
      Nuclear      1.0000   6.0000   1.0000   6.0000   1.0000   6.0000   1.0000   6.0000   1.0000   6.0000
      Electronic  -0.9023  -6.0974  -0.9023  -6.0981  -0.9022  -6.0970  -0.9026  -6.0949  -0.8996  -6.2136
 
      Total        0.0977  -0.0974   0.0977  -0.0981   0.0978  -0.0970   0.0974  -0.0949   0.1004  -0.2136
 

                   H21      H22   
      Nuclear      1.0000   1.0000
      Electronic  -0.8984  -0.8940
 
      Total        0.1016   0.1060
--
 
 
      Natural Bond Order Analysis for root number:  1
 
++    Natural Bond Order analysis
      ---------------------------
      Based on LoProp computed density
      -------------------------------------------------------------------------------------
      Atom A       Atom B       Bond Order | Atom A       Atom B       Bond Order
        C1           C4             0.999  |   C8           H9             0.990
        C6           C8             1.889  |   C8           C10            0.992
        C10          C12            1.884  |   C10          H11            0.990
        C14          C16            1.889  |   C12          H13            0.990
        C18          C20            0.999  |   C12          C14            0.992
        C1           H2             0.993  |   C14          H15            0.990
        C1           H3             0.993  |   C16          H17            0.990
        C4           H5             0.990  |   C16          C18            0.992
        C4           C6             0.992  |   C18          H19            0.990
        C6           H7             0.990  |   C20          H21            0.993
        C20          H22            0.993  |
      -------------------------------------------------------------------------------------
      NBO located     20.000 core electrons.
      NBO located     47.040 electrons involved in   21 bonds.
      The remaining    4.960 electrons are to be considered as diffuse
--
 
--
 
 
  Input file to MOLDEN was generated!
 
      Average orbitals are written to the RASORB file
      Natural orbitals for root   1 are written to the RASORB.1 file
      Spin density orbitals for root   1 are written to the SPDORB.1 file
 
--- Stop Module:  rasscf at Mon Mar 26 18:13:16 2018 /rc=0 ---
--- Module rasscf spent 2 minutes and 22 seconds 
--- Stop Module:  auto at Mon Mar 26 18:13:16 2018 /rc=0 ---
--- Module auto spent 2 minutes and 22 seconds 
--- Stop Module:  auto at Mon Mar 26 18:13:16 2018 /rc=0 ---
--- Module auto spent 2 minutes and 22 seconds 
