   License is going to expire in 45 days  on Thursday December 5th, 2019
   This copy of MOLCAS is licensed to  Quan Phung
                                                                       
                             ^^^                                       
                             ^^^          ++++  +++++  ++++++ +   ++   
                 ^^^        ^^^^^        ++  ++ ++  ++ ++     ++  ++   
                ^^^^^       ^^ ^^        ++  ++ ++  ++ ++     +++ ++   
                ^^ ^^      ^^   ^^       ++  ++ +++++  ++++   ++++++   
                ^^  ^^     ^^   ^^       ++  ++ ++     ++     ++ +++   
               ^^   ^  ^^^^  ^  ^^       ++  ++ ++     ++     ++  ++   
               ^^  ^   ^^^   ^^ ^^        ++++  ++     ++++++ ++   +   
               ^  ^^^   ^^  ^^^  ^^                                    
            ^^^   ^^^   ^   ^^^    ^^                                  
        ^^^^^^^  ^^^^^     ^^^^^   ^^^^^^                              
     ^^^^^^^^^   ^^^^^^^^^^^^^^^   ^^^^^^^^^                           
    ^^^^^^^^^^   ^^           ^^   ^^^    ^^^                          
    ^^^^^^^^^^       ^^**^^^        ^     ^^^                          
    ^^^^^^^^^^    ^^^^**^^^^^^^     ^  ^  ^^^                          
    ^^^^^^^^^^   **^^***********    ^  ^  ^^^                          
    ^^^^^^^^^   ^^***********^^^^   ^  ^  ^^^    ^^^^    ^^    ^^^^    
    ^^^^^^^^^   ^^^***********^^^   ^  ^  ^^^   ^^  ^^  ^^^^  ^^   ^   
    ^^^^^^^^^   ^^^^***********^^      ^  ^^^   ^      ^^  ^^ ^^       
    ^^^^^^^^     ***********^^**       ^  ^^^   ^      ^^  ^^  ^^^^    
    ^^^^^^        ^^^^^^^**^^^^        ^  ^^^   ^      ^^^^^^     ^^   
    ^^^     ^^^      ^^^**^^     ^     ^   ^^   ^^  ^^ ^^  ^^ ^   ^^   
          ^^^^^^^^^            ^^^^   ^^^        ^^^^  ^    ^  ^^^^    
     ^^^^^^^^^^^^^^^^^^^^^^^^^^^^^^^^^^^^^^^                           
        ^^^^^^^^^^^^^^^^^^^^^^^^^^^^^^^^^                              
            ^^^^^^^^^^^^^^^^^^^^^^^^^                                  
               ^^^^^^^^^^^^^^^^^^^        version                   
                   ^^^^^^^^^^^                                         
                       ^^^                tag adea471-dirty                      
                                              $Px$                     
                                                                       
 OpenMolcas is free software; you can redistribute it and/or modify it 
 under the terms of the GNU Lesser General Public License version 2.1. 
 OpenMolcas is distributed in the hope that it will be useful, but it  
 is provided "as is" and without any express or implied warranties.    
 For more details see the full text of the license in the file         
 LICENSE or in <http://www.gnu.org/licenses/>.                         
                                                                       
                 Copyright (C) The OpenMolcas Authors                  
           For the author list and the recommended citation,           
                   consult the file CONTRIBUTORS.md                    

configuration info
------------------
C Compiler ID: Intel
C flags: -std=gnu99
Fortran Compiler ID: Intel
Fortran flags: -fpp -i8 -r8 -heap-arrays
Definitions: _MOLCAS_;_HAVE_EXTRA_;_I8_;_LINUX_;_MOLCAS_MPP_;SCALAPACK;_MKL_
Parallel: ON (GA=OFF)


   -------------------------------------------------------------------
  |                                                                   
  |   Project         = polyene
  |   Submitted from  = /home/quan/molcas/dmrg/polyene/polyene/c16
  |   Scratch area    = /temp0/quan/polyene.work2
  |   Save outputs to = WORKDIR
  |   Molcas          = /home/quan/source/private/molcas-extra/build-gradient
  |                                                                   
  |   Scratch area is empty
  |                                                                   
  |     MOLCAS_NPROCS = 4                   
  |      MOLCAS_BLOCK = 8                   
  |       MOLCAS_TRAP = ON                  
  |      MOLCAS_PRINT = 2                   
  |      MOLCAS_NODES = node87              
  |     MOLCAS_SOURCE = /home/quan/source/private/molcas-extra/build-gradient
  |       MOLCAS_DICE = 8                   
  |                                                                   
   -------------------------------------------------------------------
--- Start Module: auto at Mon Oct 21 06:32:05 2019 

++ ---------   Input file   ---------

  &GATEWAY
    Coord
      34
    C          0.064478    9.258513    0.000000
    H         -1.017753    9.367298    0.000000
    H          0.647027   10.174459    0.000000
    C          0.649873    8.047582    0.000000
    H          1.738744    7.985447    0.000000
    C         -0.064478    6.790597    0.000000
    H         -1.154029    6.843019    0.000000
    C          0.534671    5.571269    0.000000
    H          1.624885    5.525516    0.000000
    C         -0.166789    4.318979    0.000000
    H         -1.256816    4.362036    0.000000
    C          0.438335    3.097825    0.000000
    H          1.528597    3.056510    0.000000
    C         -0.258940    1.847086    0.000000
    H         -1.349145    1.887508    0.000000
    C          0.348085    0.625165    0.000000
    H          1.438351    0.585226    0.000000
    C         -0.348085   -0.625165    0.000000
    H         -1.438351   -0.585226    0.000000
    C          0.258940   -1.847086    0.000000
    H          1.349145   -1.887508    0.000000
    C         -0.438335   -3.097825    0.000000
    H         -1.528597   -3.056510    0.000000
    C          0.166789   -4.318979    0.000000
    H          1.256816   -4.362036    0.000000
    C         -0.534671   -5.571269    0.000000
    H         -1.624885   -5.525516    0.000000
    C          0.064478   -6.790597    0.000000
    H          1.154029   -6.843019    0.000000
    C         -0.649873   -8.047582    0.000000
    H         -1.738744   -7.985447    0.000000
    C         -0.064478   -9.258513    0.000000
    H          1.017753   -9.367298    0.000000
    H         -0.647027  -10.174459    0.000000
    Basis 
    ANO-RCC-MB
    GROUP 
    NOSYM
  &SEWARD
    Medium
  &SCF
  &RASSCF
    Spin 
      1
    Symmetry 
      1
    nActEl 
      16 2 2
    Inactive 
      49
    Ras1     
      8
    Ras2     
      0
    Ras3     
      8
    Iter 
      100 100
    LumOrb
  &RASSCF
    Spin 
      1
    Symmetry 
      1
    nActEl 
      16 0 0
    Inactive 
      49
    Ras2     
      16
    Iter 
      100 100
    LumOrb
    CISO 
    CHEMPS2
    DMRG 
    500
      3RDM
  &CASPT2
    CHEMPS2

-- ----------------------------------

--- Start Module: gateway at Mon Oct 21 06:32:09 2019 
----------------------------------------------------------------------------------------------------
 DGA/MPI-2 Parallel Environment:    4 Molcas's processes are running on   1 node(s) x  4 cores each
----------------------------------------------------------------------------------------------------
 
()()()()()()()()()()()()()()()()()()()()()()()()()()()()()()()()()()()()()()()()()()()()()()()()()()

                                              &GATEWAY

             launched 4 MPI processes, running in PARALLEL mode (work-sharing enabled)
                        available to each process: 20 GB of memory, 1 thread
()()()()()()()()()()()()()()()()()()()()()()()()()()()()()()()()()()()()()()()()()()()()()()()()()()
 
 
++    Symmetry information:
      ---------------------
 
                    Character Table for C1 
 
                             E  
                    a        1  x, y, xy, Rz, z, xz, Ry, yz, Rx, I
--
 
 
++    Basis set information:
      ----------------------
 
 
      Basis set label: C.ANO-RCC...2S1P.
 
      Electronic valence basis set:
      ------------------
      Associated Effective Charge  6.000000 au
      Associated Actual Charge     6.000000 au
      Nuclear Model: Point charge
 
      Shell  nPrim  nBasis  Cartesian Spherical Contaminant
         s      14       2        X                  
         p       9       1        X                  
 
 
      Basis set label: H.ANO-RCC...1S.
 
      Electronic valence basis set:
      ------------------
      Associated Effective Charge  1.000000 au
      Associated Actual Charge     1.000000 au
      Nuclear Model: Point charge
 
      Shell  nPrim  nBasis  Cartesian Spherical Contaminant
         s       8       1        X                  
 
 
      Basis set label: C.ANO-RCC...2S1P.
 
      Electronic valence basis set:
      ------------------
      Associated Effective Charge  6.000000 au
      Associated Actual Charge     6.000000 au
      Nuclear Model: Point charge
 
      Shell  nPrim  nBasis  Cartesian Spherical Contaminant
         s      14       2        X                  
         p       9       1        X                  
 
 
      Basis set label: H.ANO-RCC...1S.
 
      Electronic valence basis set:
      ------------------
      Associated Effective Charge  1.000000 au
      Associated Actual Charge     1.000000 au
      Nuclear Model: Point charge
 
      Shell  nPrim  nBasis  Cartesian Spherical Contaminant
         s       8       1        X                  
 
 
      Basis set label: C.ANO-RCC...2S1P.
 
      Electronic valence basis set:
      ------------------
      Associated Effective Charge  6.000000 au
      Associated Actual Charge     6.000000 au
      Nuclear Model: Point charge
 
      Shell  nPrim  nBasis  Cartesian Spherical Contaminant
         s      14       2        X                  
         p       9       1        X                  
 
 
      Basis set label: H.ANO-RCC...1S.
 
      Electronic valence basis set:
      ------------------
      Associated Effective Charge  1.000000 au
      Associated Actual Charge     1.000000 au
      Nuclear Model: Point charge
 
      Shell  nPrim  nBasis  Cartesian Spherical Contaminant
         s       8       1        X                  
 
 
      Basis set label: C.ANO-RCC...2S1P.
 
      Electronic valence basis set:
      ------------------
      Associated Effective Charge  6.000000 au
      Associated Actual Charge     6.000000 au
      Nuclear Model: Point charge
 
      Shell  nPrim  nBasis  Cartesian Spherical Contaminant
         s      14       2        X                  
         p       9       1        X                  
 
 
      Basis set label: H.ANO-RCC...1S.
 
      Electronic valence basis set:
      ------------------
      Associated Effective Charge  1.000000 au
      Associated Actual Charge     1.000000 au
      Nuclear Model: Point charge
 
      Shell  nPrim  nBasis  Cartesian Spherical Contaminant
         s       8       1        X                  
 
 
      Basis set label: C.ANO-RCC...2S1P.
 
      Electronic valence basis set:
      ------------------
      Associated Effective Charge  6.000000 au
      Associated Actual Charge     6.000000 au
      Nuclear Model: Point charge
 
      Shell  nPrim  nBasis  Cartesian Spherical Contaminant
         s      14       2        X                  
         p       9       1        X                  
 
 
      Basis set label: H.ANO-RCC...1S.
 
      Electronic valence basis set:
      ------------------
      Associated Effective Charge  1.000000 au
      Associated Actual Charge     1.000000 au
      Nuclear Model: Point charge
 
      Shell  nPrim  nBasis  Cartesian Spherical Contaminant
         s       8       1        X                  
 
 
      Basis set label: C.ANO-RCC...2S1P.
 
      Electronic valence basis set:
      ------------------
      Associated Effective Charge  6.000000 au
      Associated Actual Charge     6.000000 au
      Nuclear Model: Point charge
 
      Shell  nPrim  nBasis  Cartesian Spherical Contaminant
         s      14       2        X                  
         p       9       1        X                  
 
 
      Basis set label: H.ANO-RCC...1S.
 
      Electronic valence basis set:
      ------------------
      Associated Effective Charge  1.000000 au
      Associated Actual Charge     1.000000 au
      Nuclear Model: Point charge
 
      Shell  nPrim  nBasis  Cartesian Spherical Contaminant
         s       8       1        X                  
 
 
      Basis set label: C.ANO-RCC...2S1P.
 
      Electronic valence basis set:
      ------------------
      Associated Effective Charge  6.000000 au
      Associated Actual Charge     6.000000 au
      Nuclear Model: Point charge
 
      Shell  nPrim  nBasis  Cartesian Spherical Contaminant
         s      14       2        X                  
         p       9       1        X                  
 
 
      Basis set label: H.ANO-RCC...1S.
 
      Electronic valence basis set:
      ------------------
      Associated Effective Charge  1.000000 au
      Associated Actual Charge     1.000000 au
      Nuclear Model: Point charge
 
      Shell  nPrim  nBasis  Cartesian Spherical Contaminant
         s       8       1        X                  
 
 
      Basis set label: C.ANO-RCC...2S1P.
 
      Electronic valence basis set:
      ------------------
      Associated Effective Charge  6.000000 au
      Associated Actual Charge     6.000000 au
      Nuclear Model: Point charge
 
      Shell  nPrim  nBasis  Cartesian Spherical Contaminant
         s      14       2        X                  
         p       9       1        X                  
 
 
      Basis set label: H.ANO-RCC...1S.
 
      Electronic valence basis set:
      ------------------
      Associated Effective Charge  1.000000 au
      Associated Actual Charge     1.000000 au
      Nuclear Model: Point charge
 
      Shell  nPrim  nBasis  Cartesian Spherical Contaminant
         s       8       1        X                  
 
 
      Basis set label: C.ANO-RCC...2S1P.
 
      Electronic valence basis set:
      ------------------
      Associated Effective Charge  6.000000 au
      Associated Actual Charge     6.000000 au
      Nuclear Model: Point charge
 
      Shell  nPrim  nBasis  Cartesian Spherical Contaminant
         s      14       2        X                  
         p       9       1        X                  
 
 
      Basis set label: H.ANO-RCC...1S.
 
      Electronic valence basis set:
      ------------------
      Associated Effective Charge  1.000000 au
      Associated Actual Charge     1.000000 au
      Nuclear Model: Point charge
 
      Shell  nPrim  nBasis  Cartesian Spherical Contaminant
         s       8       1        X                  
 
 
      Basis set label: C.ANO-RCC...2S1P.
 
      Electronic valence basis set:
      ------------------
      Associated Effective Charge  6.000000 au
      Associated Actual Charge     6.000000 au
      Nuclear Model: Point charge
 
      Shell  nPrim  nBasis  Cartesian Spherical Contaminant
         s      14       2        X                  
         p       9       1        X                  
 
 
      Basis set label: H.ANO-RCC...1S.
 
      Electronic valence basis set:
      ------------------
      Associated Effective Charge  1.000000 au
      Associated Actual Charge     1.000000 au
      Nuclear Model: Point charge
 
      Shell  nPrim  nBasis  Cartesian Spherical Contaminant
         s       8       1        X                  
 
 
      Basis set label: C.ANO-RCC...2S1P.
 
      Electronic valence basis set:
      ------------------
      Associated Effective Charge  6.000000 au
      Associated Actual Charge     6.000000 au
      Nuclear Model: Point charge
 
      Shell  nPrim  nBasis  Cartesian Spherical Contaminant
         s      14       2        X                  
         p       9       1        X                  
 
 
      Basis set label: H.ANO-RCC...1S.
 
      Electronic valence basis set:
      ------------------
      Associated Effective Charge  1.000000 au
      Associated Actual Charge     1.000000 au
      Nuclear Model: Point charge
 
      Shell  nPrim  nBasis  Cartesian Spherical Contaminant
         s       8       1        X                  
 
 
      Basis set label: C.ANO-RCC...2S1P.
 
      Electronic valence basis set:
      ------------------
      Associated Effective Charge  6.000000 au
      Associated Actual Charge     6.000000 au
      Nuclear Model: Point charge
 
      Shell  nPrim  nBasis  Cartesian Spherical Contaminant
         s      14       2        X                  
         p       9       1        X                  
 
 
      Basis set label: H.ANO-RCC...1S.
 
      Electronic valence basis set:
      ------------------
      Associated Effective Charge  1.000000 au
      Associated Actual Charge     1.000000 au
      Nuclear Model: Point charge
 
      Shell  nPrim  nBasis  Cartesian Spherical Contaminant
         s       8       1        X                  
 
 
      Basis set label: C.ANO-RCC...2S1P.
 
      Electronic valence basis set:
      ------------------
      Associated Effective Charge  6.000000 au
      Associated Actual Charge     6.000000 au
      Nuclear Model: Point charge
 
      Shell  nPrim  nBasis  Cartesian Spherical Contaminant
         s      14       2        X                  
         p       9       1        X                  
 
 
      Basis set label: H.ANO-RCC...1S.
 
      Electronic valence basis set:
      ------------------
      Associated Effective Charge  1.000000 au
      Associated Actual Charge     1.000000 au
      Nuclear Model: Point charge
 
      Shell  nPrim  nBasis  Cartesian Spherical Contaminant
         s       8       1        X                  
 
 
      Basis set label: C.ANO-RCC...2S1P.
 
      Electronic valence basis set:
      ------------------
      Associated Effective Charge  6.000000 au
      Associated Actual Charge     6.000000 au
      Nuclear Model: Point charge
 
      Shell  nPrim  nBasis  Cartesian Spherical Contaminant
         s      14       2        X                  
         p       9       1        X                  
 
 
      Basis set label: H.ANO-RCC...1S.
 
      Electronic valence basis set:
      ------------------
      Associated Effective Charge  1.000000 au
      Associated Actual Charge     1.000000 au
      Nuclear Model: Point charge
 
      Shell  nPrim  nBasis  Cartesian Spherical Contaminant
         s       8       1        X                  
 
 
      Basis set label: C.ANO-RCC...2S1P.
 
      Electronic valence basis set:
      ------------------
      Associated Effective Charge  6.000000 au
      Associated Actual Charge     6.000000 au
      Nuclear Model: Point charge
 
      Shell  nPrim  nBasis  Cartesian Spherical Contaminant
         s      14       2        X                  
         p       9       1        X                  
 
 
      Basis set label: H.ANO-RCC...1S.
 
      Electronic valence basis set:
      ------------------
      Associated Effective Charge  1.000000 au
      Associated Actual Charge     1.000000 au
      Nuclear Model: Point charge
 
      Shell  nPrim  nBasis  Cartesian Spherical Contaminant
         s       8       1        X                  
 
 
      Basis set label: C.ANO-RCC...2S1P.
 
      Electronic valence basis set:
      ------------------
      Associated Effective Charge  6.000000 au
      Associated Actual Charge     6.000000 au
      Nuclear Model: Point charge
 
      Shell  nPrim  nBasis  Cartesian Spherical Contaminant
         s      14       2        X                  
         p       9       1        X                  
 
 
      Basis set label: H.ANO-RCC...1S.
 
      Electronic valence basis set:
      ------------------
      Associated Effective Charge  1.000000 au
      Associated Actual Charge     1.000000 au
      Nuclear Model: Point charge
 
      Shell  nPrim  nBasis  Cartesian Spherical Contaminant
         s       8       1        X                  
--
 
 
++    Molecular structure info:
      -------------------------
 
                    ************************************************ 
                    **** Cartesian Coordinates / Bohr, Angstrom **** 
                    ************************************************ 
 
     Center  Label                x              y              z                     x              y              z
        1      C1               0.121846      17.496054       0.000000              0.064478       9.258513       0.000000
        2      H2              -1.923274      17.701628       0.000000             -1.017753       9.367298       0.000000
        3      H3               1.222704      19.226941       0.000000              0.647027      10.174459       0.000000
        4      C4               1.228082      15.207726       0.000000              0.649873       8.047582       0.000000
        5      H5               3.285750      15.090308       0.000000              1.738744       7.985447       0.000000
        6      C6              -0.121846      12.832369       0.000000             -0.064478       6.790597       0.000000
        7      H7              -2.180799      12.931432       0.000000             -1.154029       6.843019       0.000000
        8      C8               1.010382      10.528173       0.000000              0.534671       5.571269       0.000000
        9      H9               3.070588      10.441712       0.000000              1.624885       5.525516       0.000000
       10      C10             -0.315186       8.161687       0.000000             -0.166789       4.318979       0.000000
       11      H11             -2.375038       8.243053       0.000000             -1.256816       4.362036       0.000000
       12      C12              0.828333       5.854041       0.000000              0.438335       3.097825       0.000000
       13      H13              2.888630       5.775967       0.000000              1.528597       3.056510       0.000000
       14      C14             -0.489326       3.490487       0.000000             -0.258940       1.847086       0.000000
       15      H15             -2.549515       3.566873       0.000000             -1.349145       1.887508       0.000000
       16      C16              0.657785       1.181391       0.000000              0.348085       0.625165       0.000000
       17      H17              2.718089       1.105917       0.000000              1.438351       0.585226       0.000000
       18      C18             -0.657785      -1.181391       0.000000             -0.348085      -0.625165       0.000000
       19      H19             -2.718089      -1.105917       0.000000             -1.438351      -0.585226       0.000000
       20      C20              0.489326      -3.490487       0.000000              0.258940      -1.847086       0.000000
       21      H21              2.549515      -3.566873       0.000000              1.349145      -1.887508       0.000000
       22      C22             -0.828333      -5.854041       0.000000             -0.438335      -3.097825       0.000000
       23      H23             -2.888630      -5.775967       0.000000             -1.528597      -3.056510       0.000000
       24      C24              0.315186      -8.161687       0.000000              0.166789      -4.318979       0.000000
       25      H25              2.375038      -8.243053       0.000000              1.256816      -4.362036       0.000000
       26      C26             -1.010382     -10.528173       0.000000             -0.534671      -5.571269       0.000000
       27      H27             -3.070588     -10.441712       0.000000             -1.624885      -5.525516       0.000000
       28      C28              0.121846     -12.832369       0.000000              0.064478      -6.790597       0.000000
       29      H29              2.180799     -12.931432       0.000000              1.154029      -6.843019       0.000000
       30      C30             -1.228082     -15.207726       0.000000             -0.649873      -8.047582       0.000000
       31      H31             -3.285750     -15.090308       0.000000             -1.738744      -7.985447       0.000000
       32      C32             -0.121846     -17.496054       0.000000             -0.064478      -9.258513       0.000000
       33      H33              1.923274     -17.701628       0.000000              1.017753      -9.367298       0.000000
       34      H34             -1.222704     -19.226941       0.000000             -0.647027     -10.174459       0.000000
 
                    ************************************************* 
                    **** InterNuclear Distances / Bohr, Angstrom **** 
                    ************************************************* 
 
     Atom centers         Bohr        Angstrom
    3 H3        1 C1      2.051307        1.085505
   34 H34      32 C32   
    2 H2        1 C1      2.055426        1.087685
   33 H33      32 C32   
    5 H5        4 C4      2.061015        1.090642
   31 H31      30 C30   
    7 H7        6 C6      2.061335        1.090811
   29 H29      28 C28   
   11 H11      10 C10     2.061459        1.090877
   25 H25      24 C24   
   15 H15      14 C14     2.061604        1.090954
   21 H21      20 C20   
   17 H17      16 C16     2.061686        1.090997
   19 H19      18 C18   
   13 H13      12 C12     2.061775        1.091045
   23 H23      22 C22   
    9 H9        8 C8      2.062019        1.091174
   27 H27      26 C26   
    4 C4        1 C1      2.541693        1.345006
   32 C32      30 C30   
    8 C8        6 C6      2.567345        1.358580
   28 C28      26 C26   
   12 C12      10 C10     2.575435        1.362862
   24 C24      22 C22   
   16 C16      14 C14     2.578330        1.364394
   20 C20      18 C18   
   18 C18      16 C16     2.704341        1.431076
   14 C14      12 C12     2.706033        1.431971
   22 C22      20 C20   
   10 C10       8 C8      2.712449        1.435366
   26 C26      24 C24   
    6 C6        4 C4      2.732147        1.445790
   30 C30      28 C28   
    3 H3        2 H2      3.496249        1.850135
   34 H34      33 H33   
    5 H5        1 C1      3.974658        2.103298
   32 C32      31 H31   
    9 H9        6 C6      3.988342        2.110540
   28 C28      27 H27   
   13 H13      10 C10     3.994508        2.113803
   24 C24      23 H23   
    8 C8        7 H7      3.994908        2.114014
   29 H29      26 C26   
   12 C12      11 H11     3.996119        2.114655
   25 H25      22 C22   
   17 H17      14 C14     3.996709        2.114967
   20 C20      19 H19   
   16 C16      15 H15     3.997161        2.115207
   21 H21      18 C18   
    4 C4        2 H2      4.018780        2.126647
   33 H33      30 C30   
    4 C4        3 H3      4.019219        2.126879
   34 H34      30 C30   
   18 C18      17 H17     4.077782        2.157869
   19 H19      16 C16   
   14 C14      13 H13     4.078480        2.158239
   23 H23      20 C20   
   15 H15      12 C12     4.079337        2.158692
   22 C22      21 H21   
   10 C10       9 H9      4.081908        2.160053
   27 H27      24 C24   
   11 H11       8 C8      4.084463        2.161405
   26 C26      25 H25   
    6 C6        5 H5      4.087786        2.163163
   31 H31      28 C28   
    7 H7        4 C4      4.099022        2.169109
   30 C30      29 H29   
    5 H5        3 H3      4.622542        2.446144
   34 H34      31 H31   
    9 H9        5 H5      4.653573        2.462565
   31 H31      27 H27   
   13 H13       9 H9      4.669292        2.470883
   27 H27      23 H23   
    6 C6        1 C1      4.670048        2.471283
   32 C32      28 C28   
   17 H17      13 H13     4.673163        2.472931
   23 H23      19 H19   
   14 C14      10 C10     4.674446        2.473610
   24 C24      20 C20   
   10 C10       6 C6      4.674681        2.473735
   28 C28      24 C24   
   18 C18      14 C14     4.674913        2.473858
   20 C20      16 C16   
   16 C16      12 C12     4.675762        2.474306
   22 C22      18 C18   
   19 H19      15 H15     4.675830        2.474343
   21 H21      17 H17   
   12 C12       8 C8      4.677676        2.475319
   26 C26      22 C22   
   15 H15      11 H11     4.679434        2.476250
   25 H25      21 H21   
    8 C8        4 C4      4.684615        2.478991
   30 C30      26 C26   
   11 H11       7 H7      4.692400        2.483111
   29 H29      25 H25   
    7 H7        2 H2      4.777142        2.527955
   33 H33      29 H29   
    8 C8        5 H5      5.098076        2.697786
   31 H31      26 C26   
   12 C12       9 H9      5.106313        2.702144
   27 H27      22 C22   
   16 C16      13 H13     5.107524        2.702785
   23 H23      18 C18   
   19 H19      14 C14     5.108259        2.703174
   20 C20      17 H17   
   15 H15      10 C10     5.109261        2.703704
   24 C24      21 H21   
    9 H9        4 C4      5.109767        2.703972
   30 C30      27 H27   
   13 H13       8 C8      5.109919        2.704053
   26 C26      23 H23   
   17 H17      12 C12     5.110368        2.704290
   22 C22      19 H19   
   18 C18      15 H15     5.111228        2.704745
   21 H21      16 C16   
    7 H7        1 C1      5.112528        2.705434
   32 C32      29 H29   
   11 H11       6 C6      5.112601        2.705472
   28 C28      25 H25   
   14 C14      11 H11     5.113003        2.705685
   25 H25      20 C20   
   10 C10       7 H7      5.121618        2.710244
   29 H29      24 C24   
    6 C6        2 H2      5.191804        2.747384
   33 H33      28 C28   
--
 
 
            Nuclear Potential Energy            796.36184932 au
 
--- Stop Module:  gateway at Mon Oct 21 06:32:19 2019 /rc=0 ---
--- Module gateway spent 10 seconds 
--- Start Module: seward at Mon Oct 21 06:32:24 2019 
----------------------------------------------------------------------------------------------------
 DGA/MPI-2 Parallel Environment:    4 Molcas's processes are running on   1 node(s) x  4 cores each
----------------------------------------------------------------------------------------------------
 
()()()()()()()()()()()()()()()()()()()()()()()()()()()()()()()()()()()()()()()()()()()()()()()()()()

                                              &SEWARD

             launched 4 MPI processes, running in PARALLEL mode (work-sharing enabled)
                        available to each process: 20 GB of memory, 1 thread
()()()()()()()()()()()()()()()()()()()()()()()()()()()()()()()()()()()()()()()()()()()()()()()()()()
 
               SEWARD will generate:
                  Multipole Moment integrals up to order  2
                  Kinetic Energy integrals
                  Nuclear Attraction integrals (point charge)
                  One-Electron Hamiltonian integrals
                  Velocity integrals
                  Relativistic Douglas-Kroll-Hess integrals:
                    - Parametrization         : EXP
                    - DKH order of Hamiltonian: 2
                    - DKH order of Properties : 0
                         - multipole moment operators
                         - electric potential operators
                         - contact operators
                  Atomic mean-field integrals
                  Cholesky decomposed two-electron repulsion integrals
                   - CD Threshold:   0.10E-05
 
                   Integrals are discarded if absolute value <: 0.10E-39
                   Integral cutoff threshold is set to       <: 0.10E-39
 
            Nuclear Potential Energy            796.36184932 au
 
 
      Basis set specifications :
      Symmetry species         a  
      Basis functions           98
 
      Cholesky vectors         693
 
 
 
  Input file to MOLDEN was generated!
 
--- Stop Module:  seward at Mon Oct 21 06:33:47 2019 /rc=0 ---
--- Module seward spent 1 minute and 23 seconds 
*** 
--- Start Module: scf at Mon Oct 21 06:33:53 2019 
----------------------------------------------------------------------------------------------------
 DGA/MPI-2 Parallel Environment:    4 Molcas's processes are running on   1 node(s) x  4 cores each
----------------------------------------------------------------------------------------------------
 
()()()()()()()()()()()()()()()()()()()()()()()()()()()()()()()()()()()()()()()()()()()()()()()()()()

                                                &SCF

             launched 4 MPI processes, running in PARALLEL mode (work-sharing enabled)
                        available to each process: 20 GB of memory, 1 thread
()()()()()()()()()()()()()()()()()()()()()()()()()()()()()()()()()()()()()()()()()()()()()()()()()()
 
++    Input section:
      --------------
 
      Header of the integral files:
      
       Integrals generated by seward 4.2.0  , Mon Oct 21 06:32:28 2019
 
 
      Cartesian coordinates in Angstrom:
      -----------------------------------------------------
      No.  Label        X            Y            Z        
      -----------------------------------------------------
       1   C1         0.06447800   9.25851300   0.00000000
       2   H2        -1.01775300   9.36729800   0.00000000
       3   H3         0.64702700  10.17445900   0.00000000
       4   C4         0.64987300   8.04758200   0.00000000
       5   H5         1.73874400   7.98544700   0.00000000
       6   C6        -0.06447800   6.79059700   0.00000000
       7   H7        -1.15402900   6.84301900   0.00000000
       8   C8         0.53467100   5.57126900   0.00000000
       9   H9         1.62488500   5.52551600   0.00000000
      10   C10       -0.16678900   4.31897900   0.00000000
      11   H11       -1.25681600   4.36203600   0.00000000
      12   C12        0.43833500   3.09782500   0.00000000
      13   H13        1.52859700   3.05651000   0.00000000
      14   C14       -0.25894000   1.84708600   0.00000000
      15   H15       -1.34914500   1.88750800   0.00000000
      16   C16        0.34808500   0.62516500   0.00000000
      17   H17        1.43835100   0.58522600   0.00000000
      18   C18       -0.34808500  -0.62516500   0.00000000
      19   H19       -1.43835100  -0.58522600   0.00000000
      20   C20        0.25894000  -1.84708600   0.00000000
      21   H21        1.34914500  -1.88750800   0.00000000
      22   C22       -0.43833500  -3.09782500   0.00000000
      23   H23       -1.52859700  -3.05651000   0.00000000
      24   C24        0.16678900  -4.31897900   0.00000000
      25   H25        1.25681600  -4.36203600   0.00000000
      26   C26       -0.53467100  -5.57126900   0.00000000
      27   H27       -1.62488500  -5.52551600   0.00000000
      28   C28        0.06447800  -6.79059700   0.00000000
      29   H29        1.15402900  -6.84301900   0.00000000
      30   C30       -0.64987300  -8.04758200   0.00000000
      31   H31       -1.73874400  -7.98544700   0.00000000
      32   C32       -0.06447800  -9.25851300   0.00000000
      33   H33        1.01775300  -9.36729800   0.00000000
      34   H34       -0.64702700 -10.17445900   0.00000000
      -----------------------------------------------------
      Nuclear repulsion energy =  796.36184932
--
 
++    Orbital specifications:
      -----------------------
 
      Symmetry species               1
                                     a
      Frozen orbitals                0
      Occupied orbitals             57
      Secondary orbitals            41
      Deleted orbitals               0
      Total number of orbitals      98
      Number of basis functions     98
--
 
      Molecular charge                           0.000
 
++    Optimization specifications:
      ----------------------------
 
      SCF Algorithm: LK-Cholesky
      The actual AO density is used
      Number of density matrices in core                5
      Maximum number of NDDO SCF iterations           400
      Maximum number of HF SCF iterations             400
      Threshold for SCF energy change            0.10E-08
      Threshold for density matrix               0.10E-03
      Threshold for Fock matrix                  0.15E-03
      Threshold for linear dependence            0.10E-08
      Threshold at which DIIS is turned on       0.15E+00
      Threshold at which QNR/C2DIIS is turned on 0.75E-01
      Threshold for Norm(delta) (QNR/C2DIIS)     0.20E-04
      DIIS extrapolation of the SCF procedure
      All orbitals punched on: SCFORB
--
 
      Input vectors read from INPORB
      Orbital file label: *Guess orbitals
 
 
++ Convergence information
                                   SCF        iterations: Energy and convergence statistics
 
Iter     Tot. SCF        One-elec.       Two-elec.     Energy      Max Dij or  Max Fij      DNorm      TNorm      AccCon     Time
         Energy          Energy          Energy        Change      Delta Norm                                                in Sec.
   1  -615.507327300 -2395.212604363   983.343427742   0.00E+00    0.21E+00*   0.61E-01*    0.14E+02   0.19E+03   None         8.
   2  -615.712651824 -2402.490141340   990.415640195  -0.21E+00*   0.80E-01*   0.16E-01*    0.14E+02   0.19E+03   EDIIS        3.
   3  -615.721902477 -2402.225012973   990.141261175  -0.93E-02*   0.41E-01*   0.89E-02*    0.14E+02   0.19E+03   EDIIS        4.
   4  -615.723829237 -2402.366072276   990.280393719  -0.19E-02*   0.24E-01*   0.80E-02*    0.14E+02   0.19E+03   c2DIIS       4.
   5  -615.723993877 -2402.247396487   990.161553290  -0.16E-03*   0.21E-01*   0.30E-02*    0.14E+02   0.19E+03   QNRc2DIIS    4.
   6  -615.724320967 -2402.377372530   990.291202243  -0.33E-03*   0.72E-02*   0.16E-02*    0.14E+02   0.19E+03   QNRc2DIIS    4.
   7  -615.724449799 -2402.333984786   990.247685667  -0.13E-03*   0.32E-03*   0.60E-04     0.14E+02   0.19E+03   QNRc2DIIS    6.
   8  -615.724451263 -2402.333359370   990.247058787  -0.15E-05*   0.15E-03*   0.28E-04     0.14E+02   0.19E+03   QNRc2DIIS    7.
   9  -615.724451250 -2402.333736306   990.247435735   0.13E-07*   0.31E-04*   0.45E-05     0.14E+02   0.19E+03   QNRc2DIIS    7.
  10  -615.724451370 -2402.333793328   990.247492637  -0.12E-06*   0.90E-05    0.11E-05     0.14E+02   0.19E+03   QNRc2DIIS    6.
  11  -615.724451395 -2402.333806776   990.247506061  -0.24E-07*   0.26E-05    0.59E-06     0.14E+02   0.19E+03   QNRc2DIIS    7.
  12  -615.724451428 -2402.333809235   990.247508487  -0.34E-07*   0.15E-05    0.15E-06     0.14E+02   0.19E+03   QNRc2DIIS    6.
  13  -615.724451504 -2402.333813607   990.247512782  -0.76E-07*   0.28E-06    0.46E-07     0.14E+02   0.19E+03   QNRc2DIIS    6.
  14  -615.724451571 -2402.333814282   990.247513391  -0.67E-07*   0.11E-06    0.15E-07     0.14E+02   0.19E+03   QNRc2DIIS    8.
  15  -615.724451579 -2402.333814465   990.247513566  -0.81E-08*   0.41E-07    0.82E-08     0.14E+02   0.19E+03   QNRc2DIIS    7.
  16  -615.724451584 -2402.333814511   990.247513608  -0.42E-08*   0.20E-07    0.31E-08     0.14E+02   0.19E+03   QNRc2DIIS    7.
  17  -615.724451586 -2402.333814545   990.247513639  -0.28E-08*   0.90E-08    0.33E-08     0.14E+02   0.19E+03   QNRc2DIIS    7.
  18  -615.724451586 -2402.333814543   990.247513637   0.35E-10    0.25E-08    0.70E-09     0.14E+02   0.19E+03   QNRc2DIIS    7.
 
       Convergence after 18 Macro Iterations
--
 
 *****************************************************************************************************************************
 *                                                                                                                           *
 *                                             SCF/KS-DFT Program, Final results                                             *
 *                                                                                                                           *
 *                                                                                                                           *
 *                                                                                                                           *
 *                                                       Final Results                                                       *
 *                                                                                                                           *
 *****************************************************************************************************************************
 
::    Total SCF energy                               -615.7244515862
      One-electron energy                           -2402.3338145431
      Two-electron energy                             990.2475136366
      Nuclear repulsion energy                        796.3618493203
      Kinetic energy (interpolated)                   613.0478662305
      Virial theorem                                    1.0043660300
      Total spin, S(S+1)                                0.0000000000
      Total spin, S                                     0.0000000000
      Max non-diagonal density matrix element           0.0000000019
      Max non-diagonal Fock matrix element              0.0000000001
 
 
      All orbitals with orbital energies smaller than  E(LUMO)+0.5 are printed
 
++    Molecular orbitals:
      -------------------
 
      Title: SCF orbitals

      Molecular orbitals for symmetry species 1: a  
 
          Orbital        1         2         3         4         5         6         7         8         9        10    
          Energy      -11.3594  -11.3594  -11.3565  -11.3564  -11.3562  -11.3561  -11.3559  -11.3557  -11.3550  -11.3547
          Occ. No.      2.0000    2.0000    2.0000    2.0000    2.0000    2.0000    2.0000    2.0000    2.0000    2.0000
 
        1 C1    1s      0.0001    0.0325   -0.0002    0.0004   -0.0006    0.0008   -0.0008    0.0005   -0.0003    0.0004
        2 C1    2s     -0.0000   -0.0006   -0.0000    0.0000   -0.0000    0.0001   -0.0001    0.0000   -0.0000    0.0000
        3 C1    2px    -0.0000   -0.0000   -0.0000    0.0000   -0.0000    0.0000   -0.0000    0.0000    0.0000   -0.0000
        4 C1    2py     0.0000    0.0001    0.0000   -0.0000    0.0001   -0.0001    0.0001   -0.0000    0.0000   -0.0000
        5 C1    2pz     0.0000    0.0000   -0.0000    0.0000   -0.0000   -0.0000   -0.0000   -0.0000    0.0000   -0.0000
        6 H2    1s     -0.0000   -0.0004   -0.0000    0.0000   -0.0000    0.0000   -0.0000    0.0000   -0.0000    0.0000
        7 H3    1s     -0.0000   -0.0004   -0.0000    0.0000   -0.0000    0.0000   -0.0000    0.0000   -0.0000    0.0000
        8 C4    1s      0.0029    0.9974   -0.0032    0.0067   -0.0106    0.0137   -0.0136    0.0091   -0.0051    0.0068
        9 C4    2s      0.0000    0.0003   -0.0001    0.0001   -0.0001    0.0002   -0.0001    0.0001   -0.0000    0.0000
       10 C4    2px    -0.0000   -0.0002    0.0000   -0.0000    0.0000    0.0000   -0.0000    0.0000   -0.0000    0.0000
       11 C4    2py     0.0000    0.0001    0.0001   -0.0001    0.0002   -0.0002    0.0002   -0.0001    0.0000   -0.0000
       12 C4    2pz    -0.0000   -0.0000   -0.0000    0.0000    0.0000   -0.0000   -0.0000    0.0000   -0.0000   -0.0000
       13 H5    1s     -0.0000   -0.0008   -0.0000    0.0001   -0.0001    0.0001   -0.0001    0.0001   -0.0000    0.0000
       14 C6    1s      0.0002    0.0656    0.0324   -0.0691    0.1116   -0.1479    0.1518   -0.1042    0.0666   -0.0920
       15 C6    2s     -0.0000   -0.0006   -0.0001    0.0002   -0.0003    0.0002   -0.0002    0.0001    0.0000   -0.0000
       16 C6    2px    -0.0000   -0.0000   -0.0000   -0.0000    0.0000   -0.0001    0.0001   -0.0000   -0.0000    0.0000
       17 C6    2py    -0.0000   -0.0002    0.0001   -0.0001    0.0001   -0.0000   -0.0000    0.0001   -0.0001    0.0001
       18 C6    2pz     0.0000   -0.0000   -0.0000   -0.0000    0.0000   -0.0000   -0.0000    0.0000   -0.0000   -0.0000
       19 H7    1s     -0.0000   -0.0004   -0.0001    0.0002   -0.0003    0.0003   -0.0002    0.0001   -0.0000    0.0000
       20 C8    1s      0.0000    0.0073    0.1389   -0.2819    0.4227   -0.5139    0.4821   -0.3021    0.1169   -0.1263
       21 C8    2s     -0.0000   -0.0002   -0.0002    0.0002   -0.0001   -0.0001    0.0002   -0.0002    0.0002   -0.0002
       22 C8    2px    -0.0000   -0.0000   -0.0000    0.0001   -0.0001    0.0001   -0.0001    0.0000   -0.0000    0.0001
       23 C8    2py    -0.0000   -0.0002    0.0002   -0.0002    0.0001   -0.0000   -0.0001    0.0001   -0.0000    0.0000
       24 C8    2pz    -0.0000    0.0000    0.0000    0.0000   -0.0000    0.0000    0.0000    0.0000   -0.0000    0.0000
       25 H9    1s     -0.0000   -0.0002   -0.0002    0.0004   -0.0005    0.0004   -0.0003    0.0001   -0.0000    0.0000
       26 C10   1s      0.0000    0.0004    0.2090   -0.3371    0.3148   -0.1240   -0.1239    0.2207   -0.3417    0.4780
       27 C10   2s     -0.0000   -0.0001   -0.0003    0.0004   -0.0002    0.0001   -0.0001    0.0002   -0.0003    0.0004
       28 C10   2px    -0.0000   -0.0000    0.0000   -0.0001    0.0001   -0.0000   -0.0001    0.0001   -0.0000    0.0001
       29 C10   2py    -0.0000   -0.0001    0.0001   -0.0000   -0.0002    0.0003   -0.0002    0.0000    0.0001   -0.0000
       30 C10   2pz    -0.0000    0.0000   -0.0000    0.0000   -0.0000   -0.0000    0.0000    0.0000    0.0000    0.0000
       31 H11   1s     -0.0000   -0.0000   -0.0004    0.0005   -0.0004    0.0002    0.0001   -0.0001    0.0001   -0.0002
       32 C12   1s      0.0000   -0.0002    0.3374   -0.4495    0.2438    0.1461   -0.4143    0.3504    0.0375   -0.2515
       33 C12   2s     -0.0000   -0.0000   -0.0003    0.0003    0.0000   -0.0000   -0.0002    0.0003   -0.0001   -0.0002
       34 C12   2px     0.0000    0.0000   -0.0001    0.0001   -0.0001   -0.0000    0.0001   -0.0001    0.0000    0.0000
       35 C12   2py    -0.0000   -0.0000    0.0002   -0.0000   -0.0003    0.0003   -0.0001   -0.0001   -0.0000    0.0000
       36 C12   2pz    -0.0000   -0.0000   -0.0000   -0.0000    0.0000   -0.0000   -0.0000    0.0000    0.0000    0.0000
       37 H13   1s     -0.0000   -0.0000   -0.0005    0.0006   -0.0002   -0.0001    0.0002   -0.0001   -0.0000    0.0001
       38 C14   1s      0.0000   -0.0000    0.3770   -0.2803   -0.1612    0.3437   -0.0213   -0.3159    0.4954   -0.2124
       39 C14   2s      0.0000   -0.0000   -0.0004    0.0003   -0.0000    0.0000    0.0001   -0.0002    0.0004   -0.0002
       40 C14   2px    -0.0000   -0.0000    0.0001   -0.0001   -0.0001    0.0001    0.0000   -0.0001    0.0001   -0.0000
       41 C14   2py    -0.0000   -0.0000    0.0000    0.0003   -0.0003   -0.0001    0.0002   -0.0000   -0.0000   -0.0001
       42 C14   2pz    -0.0000   -0.0000    0.0000    0.0000   -0.0000   -0.0000   -0.0000    0.0000   -0.0000   -0.0000
       43 H15   1s     -0.0000   -0.0000   -0.0006    0.0004    0.0002   -0.0003    0.0000    0.0001   -0.0002    0.0001
       44 C16   1s      0.0000   -0.0000    0.4249   -0.1429   -0.3521    0.2426    0.2399   -0.3549   -0.3446    0.3729
       45 C16   2s     -0.0000   -0.0000   -0.0005    0.0000    0.0001    0.0001    0.0000   -0.0002   -0.0002    0.0004
       46 C16   2px     0.0000    0.0000   -0.0001    0.0000    0.0001   -0.0001   -0.0000    0.0001    0.0000   -0.0001
       47 C16   2py    -0.0000   -0.0000    0.0001    0.0003   -0.0002   -0.0002    0.0001    0.0001    0.0000    0.0001
       48 C16   2pz    -0.0000    0.0000   -0.0000   -0.0000   -0.0000   -0.0000   -0.0000    0.0000    0.0000    0.0000
       49 H17   1s     -0.0000   -0.0000   -0.0007    0.0002    0.0004   -0.0002   -0.0002    0.0002    0.0001   -0.0001
       50 C18   1s     -0.0000    0.0000    0.4244    0.1440   -0.3519   -0.2427    0.2392    0.3552   -0.3447   -0.3731
       51 C18   2s     -0.0000   -0.0000   -0.0005   -0.0000    0.0001   -0.0001    0.0000    0.0002   -0.0002   -0.0004
       52 C18   2px    -0.0000   -0.0000    0.0001    0.0000   -0.0001   -0.0001    0.0000    0.0001   -0.0000   -0.0001
       53 C18   2py     0.0000    0.0000   -0.0001    0.0003    0.0002   -0.0002   -0.0001    0.0001   -0.0000    0.0001
       54 C18   2pz     0.0000   -0.0000   -0.0000   -0.0000    0.0000   -0.0000    0.0000   -0.0000   -0.0000   -0.0000
       55 H19   1s     -0.0000   -0.0000   -0.0007   -0.0002    0.0004    0.0002   -0.0002   -0.0002    0.0001    0.0001
       56 C20   1s     -0.0000    0.0000    0.3765    0.2812   -0.1610   -0.3439   -0.0219    0.3160    0.4952    0.2125
       57 C20   2s     -0.0000    0.0000   -0.0004   -0.0003   -0.0000   -0.0000    0.0001    0.0002    0.0004    0.0002
       58 C20   2px     0.0000   -0.0000   -0.0001   -0.0001    0.0001    0.0001   -0.0000   -0.0001   -0.0001   -0.0000
       59 C20   2py     0.0000    0.0000   -0.0000    0.0003    0.0003   -0.0001   -0.0002   -0.0000    0.0000   -0.0001
       60 C20   2pz     0.0000    0.0000    0.0000   -0.0000   -0.0000    0.0000    0.0000    0.0000   -0.0000   -0.0000
       61 H21   1s     -0.0000   -0.0000   -0.0006   -0.0004    0.0002    0.0003    0.0000   -0.0001   -0.0002   -0.0001
       62 C22   1s     -0.0002    0.0000    0.3364    0.4498    0.2439   -0.1462   -0.4140   -0.3510    0.0375    0.2515
       63 C22   2s     -0.0000    0.0000   -0.0003   -0.0003    0.0000    0.0000   -0.0002   -0.0003   -0.0001    0.0002
       64 C22   2px    -0.0000    0.0000    0.0001    0.0001    0.0001   -0.0000   -0.0001   -0.0001   -0.0000    0.0000
       65 C22   2py     0.0000   -0.0000   -0.0002   -0.0000    0.0003    0.0003    0.0001   -0.0001    0.0000    0.0000
       66 C22   2pz     0.0000    0.0000   -0.0000    0.0000    0.0000    0.0000   -0.0000   -0.0000   -0.0000    0.0000
       67 H23   1s     -0.0000    0.0000   -0.0005   -0.0006   -0.0002    0.0001    0.0002    0.0001   -0.0000   -0.0001
       68 C24   1s      0.0004   -0.0000    0.2084    0.3374    0.3150    0.1239   -0.1238   -0.2212   -0.3415   -0.4779
       69 C24   2s     -0.0001    0.0000   -0.0003   -0.0004   -0.0002   -0.0001   -0.0001   -0.0002   -0.0003   -0.0004
       70 C24   2px     0.0000   -0.0000   -0.0000   -0.0001   -0.0001   -0.0000    0.0001    0.0001    0.0000    0.0001
       71 C24   2py     0.0001   -0.0000   -0.0001   -0.0000    0.0002    0.0003    0.0002    0.0000   -0.0001   -0.0000
       72 C24   2pz     0.0000    0.0000   -0.0000   -0.0000    0.0000    0.0000    0.0000   -0.0000   -0.0000    0.0000
       73 H25   1s     -0.0000    0.0000   -0.0004   -0.0005   -0.0004   -0.0002    0.0001    0.0001    0.0001    0.0002
       74 C26   1s      0.0073   -0.0000    0.1385    0.2822    0.4230    0.5138    0.4816    0.3027    0.1169    0.1262
       75 C26   2s     -0.0002    0.0000   -0.0002   -0.0002   -0.0001    0.0001    0.0002    0.0002    0.0002    0.0002
       76 C26   2px     0.0000   -0.0000    0.0000    0.0001    0.0001    0.0001    0.0001    0.0000    0.0000    0.0001
       77 C26   2py     0.0002   -0.0000   -0.0002   -0.0002   -0.0002   -0.0000    0.0001    0.0001    0.0000    0.0000
       78 C26   2pz    -0.0000    0.0000    0.0000   -0.0000    0.0000   -0.0000    0.0000   -0.0000   -0.0000    0.0000
       79 H27   1s     -0.0002    0.0000   -0.0002   -0.0004   -0.0005   -0.0004   -0.0003   -0.0001   -0.0000   -0.0000
       80 C28   1s      0.0656   -0.0002    0.0323    0.0692    0.1116    0.1479    0.1517    0.1044    0.0666    0.0920
       81 C28   2s     -0.0006    0.0000   -0.0001   -0.0002   -0.0003   -0.0002   -0.0002   -0.0001    0.0000    0.0000
       82 C28   2px     0.0000   -0.0000    0.0000   -0.0000   -0.0000   -0.0001   -0.0001   -0.0000    0.0000    0.0000
       83 C28   2py     0.0002   -0.0000   -0.0001   -0.0001   -0.0001   -0.0000    0.0000    0.0001    0.0001    0.0001
       84 C28   2pz     0.0000    0.0000   -0.0000    0.0000   -0.0000   -0.0000   -0.0000   -0.0000    0.0000    0.0000
       85 H29   1s     -0.0004    0.0000   -0.0001   -0.0002   -0.0003   -0.0003   -0.0002   -0.0001   -0.0000   -0.0000
       86 C30   1s      0.9974   -0.0029   -0.0032   -0.0067   -0.0106   -0.0137   -0.0136   -0.0091   -0.0051   -0.0068
       87 C30   2s      0.0003   -0.0000   -0.0001   -0.0001   -0.0001   -0.0002   -0.0001   -0.0001   -0.0000   -0.0000
       88 C30   2px     0.0002   -0.0000   -0.0000   -0.0000   -0.0000    0.0000    0.0000    0.0000    0.0000    0.0000
       89 C30   2py    -0.0001    0.0000   -0.0001   -0.0001   -0.0002   -0.0002   -0.0002   -0.0001   -0.0000   -0.0000
       90 C30   2pz     0.0000   -0.0000    0.0000   -0.0000   -0.0000    0.0000    0.0000    0.0000   -0.0000   -0.0000
       91 H31   1s     -0.0008    0.0000   -0.0000   -0.0001   -0.0001   -0.0001   -0.0001   -0.0001   -0.0000   -0.0000
       92 C32   1s      0.0325   -0.0001   -0.0002   -0.0004   -0.0006   -0.0008   -0.0008   -0.0005   -0.0003   -0.0004
       93 C32   2s     -0.0006    0.0000   -0.0000   -0.0000   -0.0000   -0.0001   -0.0001   -0.0000   -0.0000   -0.0000
       94 C32   2px     0.0000   -0.0000    0.0000    0.0000    0.0000    0.0000    0.0000    0.0000   -0.0000   -0.0000
       95 C32   2py    -0.0001    0.0000   -0.0000   -0.0000   -0.0001   -0.0001   -0.0001   -0.0000   -0.0000   -0.0000
       96 C32   2pz    -0.0000    0.0000    0.0000    0.0000    0.0000    0.0000   -0.0000   -0.0000    0.0000    0.0000
       97 H33   1s     -0.0004    0.0000   -0.0000   -0.0000   -0.0000   -0.0000   -0.0000   -0.0000   -0.0000   -0.0000
       98 H34   1s     -0.0004    0.0000   -0.0000   -0.0000   -0.0000   -0.0000   -0.0000   -0.0000   -0.0000   -0.0000
 
          Orbital       11        12        13        14        15        16        17        18        19        20    
          Energy      -11.3545  -11.3544  -11.3535  -11.3535  -11.3373  -11.3373   -1.1622   -1.1528   -1.1378   -1.1173
          Occ. No.      2.0000    2.0000    2.0000    2.0000    2.0000    2.0000    2.0000    2.0000    2.0000    2.0000
 
        1 C1    1s     -0.0004   -0.0003    0.0007    0.0037    0.0239   -0.9994   -0.0047    0.0094   -0.0139    0.0178
        2 C1    2s     -0.0000   -0.0000    0.0000    0.0001    0.0000   -0.0005    0.0378   -0.0764    0.1149   -0.1509
        3 C1    2px     0.0000    0.0000   -0.0000   -0.0001    0.0000   -0.0002    0.0057   -0.0113    0.0165   -0.0209
        4 C1    2py     0.0000    0.0000   -0.0000   -0.0002   -0.0000    0.0003   -0.0133    0.0264   -0.0383    0.0476
        5 C1    2pz    -0.0000   -0.0000    0.0000    0.0000    0.0000    0.0000    0.0000    0.0000   -0.0000    0.0000
        6 H2    1s     -0.0000   -0.0000    0.0000    0.0001   -0.0000    0.0008    0.0047   -0.0100    0.0161   -0.0230
        7 H3    1s     -0.0000   -0.0000    0.0000    0.0001   -0.0000    0.0008    0.0049   -0.0103    0.0163   -0.0229
        8 C4    1s     -0.0068   -0.0045    0.0108    0.0594   -0.0008    0.0333   -0.0088    0.0169   -0.0229    0.0259
        9 C4    2s     -0.0000   -0.0000    0.0001    0.0005   -0.0000    0.0007    0.0718   -0.1378    0.1893   -0.2179
       10 C4    2px    -0.0000   -0.0000   -0.0000   -0.0001    0.0000   -0.0001   -0.0133    0.0250   -0.0331    0.0359
       11 C4    2py     0.0000    0.0000   -0.0000   -0.0001   -0.0000    0.0001   -0.0080    0.0120   -0.0085   -0.0053
       12 C4    2pz     0.0000    0.0000    0.0000    0.0000   -0.0000    0.0000    0.0000    0.0000   -0.0000    0.0000
       13 H5    1s     -0.0000   -0.0000    0.0000    0.0002   -0.0000    0.0003    0.0090   -0.0180    0.0266   -0.0335
       14 C6    1s      0.0956    0.0645   -0.1689   -0.9312    0.0000   -0.0019   -0.0141    0.0241   -0.0268    0.0210
       15 C6    2s      0.0000    0.0000   -0.0001   -0.0005   -0.0000    0.0001    0.1115   -0.1932    0.2189   -0.1767
       16 C6    2px    -0.0000   -0.0000   -0.0000   -0.0002    0.0000   -0.0000    0.0194   -0.0335    0.0377   -0.0306
       17 C6    2py    -0.0001   -0.0001    0.0000    0.0001   -0.0000    0.0003   -0.0169    0.0229   -0.0108   -0.0191
       18 C6    2pz     0.0000    0.0000   -0.0000    0.0000   -0.0000   -0.0000   -0.0000    0.0000   -0.0000    0.0000
       19 H7    1s     -0.0000   -0.0000    0.0001    0.0006   -0.0000    0.0002    0.0143   -0.0259    0.0313   -0.0272
       20 C8    1s      0.1031    0.0589    0.0539    0.2973    0.0000   -0.0000   -0.0180    0.0273   -0.0231    0.0075
       21 C8    2s      0.0002    0.0002    0.0001    0.0007   -0.0000    0.0001    0.1441   -0.2194    0.1869   -0.0604
       22 C8    2px    -0.0001   -0.0000   -0.0000   -0.0001    0.0000   -0.0000   -0.0258    0.0382   -0.0304    0.0074
       23 C8    2py    -0.0000    0.0000    0.0000    0.0001   -0.0000    0.0000   -0.0036   -0.0064    0.0312   -0.0551
       24 C8    2pz    -0.0000   -0.0000   -0.0000   -0.0000    0.0000   -0.0000   -0.0000    0.0000   -0.0000    0.0000
       25 H9    1s     -0.0000   -0.0000    0.0000    0.0001   -0.0000    0.0000    0.0185   -0.0295    0.0271   -0.0098
       26 C10   1s     -0.4702   -0.2988   -0.0167   -0.0928    0.0000   -0.0000   -0.0220    0.0266   -0.0101   -0.0137
       27 C10   2s     -0.0004   -0.0003   -0.0000   -0.0001   -0.0000    0.0000    0.1756   -0.2143    0.0842    0.1126
       28 C10   2px    -0.0001   -0.0001   -0.0000   -0.0001   -0.0000    0.0000    0.0309   -0.0379    0.0160    0.0164
       29 C10   2py    -0.0000   -0.0001    0.0000    0.0002   -0.0000    0.0000   -0.0158    0.0032    0.0326   -0.0523
       30 C10   2pz     0.0000   -0.0000    0.0000   -0.0000    0.0000   -0.0000   -0.0000    0.0000   -0.0000    0.0000
       31 H11   1s      0.0002    0.0002    0.0000    0.0001   -0.0000    0.0000    0.0226   -0.0288    0.0118    0.0179
       32 C12   1s      0.3920    0.2996    0.0056    0.0319   -0.0000    0.0000   -0.0248    0.0228    0.0032   -0.0245
       33 C12   2s      0.0005    0.0005    0.0000    0.0001    0.0000   -0.0000    0.1979   -0.1830   -0.0275    0.2051
       34 C12   2px    -0.0001   -0.0001   -0.0000   -0.0001   -0.0000    0.0000   -0.0353    0.0312    0.0063   -0.0340
       35 C12   2py     0.0000    0.0000   -0.0000   -0.0000   -0.0000    0.0000    0.0017   -0.0230    0.0383   -0.0067
       36 C12   2pz     0.0000   -0.0000   -0.0000   -0.0000    0.0000   -0.0000    0.0000   -0.0000    0.0000   -0.0000
       37 H13   1s     -0.0001   -0.0001   -0.0000   -0.0000   -0.0000    0.0000    0.0255   -0.0248   -0.0037    0.0321
       38 C14   1s     -0.2941   -0.3976   -0.0012   -0.0092    0.0000   -0.0000   -0.0270    0.0145    0.0182   -0.0230
       39 C14   2s     -0.0004   -0.0005   -0.0000   -0.0000   -0.0000    0.0000    0.2151   -0.1174   -0.1477    0.1931
       40 C14   2px    -0.0001   -0.0001   -0.0000   -0.0000   -0.0000    0.0000    0.0380   -0.0215   -0.0239    0.0324
       41 C14   2py     0.0001    0.0000    0.0000    0.0000   -0.0000    0.0000   -0.0123   -0.0177    0.0363    0.0142
       42 C14   2pz     0.0000    0.0000    0.0000   -0.0000    0.0000    0.0000   -0.0000    0.0000    0.0000   -0.0000
       43 H15   1s      0.0001    0.0002    0.0000    0.0000   -0.0000    0.0000    0.0277   -0.0156   -0.0215    0.0301
       44 C16   1s      0.1399    0.3945   -0.0003    0.0037    0.0000    0.0000   -0.0280    0.0058    0.0255   -0.0106
       45 C16   2s      0.0001    0.0006   -0.0000    0.0000   -0.0000    0.0000    0.2230   -0.0452   -0.2088    0.0866
       46 C16   2px    -0.0000   -0.0001    0.0000   -0.0000    0.0000   -0.0000   -0.0396    0.0068    0.0359   -0.0122
       47 C16   2py    -0.0001    0.0000   -0.0000   -0.0000    0.0000   -0.0000    0.0073   -0.0280    0.0025    0.0538
       48 C16   2pz    -0.0000   -0.0000    0.0000    0.0000   -0.0000   -0.0000   -0.0000    0.0000   -0.0000    0.0000
       49 H17   1s     -0.0001   -0.0001    0.0000   -0.0000    0.0000   -0.0000    0.0287   -0.0063   -0.0300    0.0139
       50 C18   1s      0.1397   -0.3947    0.0034   -0.0016    0.0000    0.0000   -0.0280   -0.0058    0.0255    0.0106
       51 C18   2s      0.0001   -0.0006    0.0000   -0.0000    0.0000   -0.0000    0.2230    0.0452   -0.2088   -0.0866
       52 C18   2px     0.0000   -0.0001    0.0000   -0.0000    0.0000   -0.0000    0.0396    0.0068   -0.0359   -0.0122
       53 C18   2py     0.0001    0.0000    0.0000    0.0000    0.0000   -0.0000   -0.0073   -0.0280   -0.0025    0.0538
       54 C18   2pz     0.0000    0.0000    0.0000   -0.0000   -0.0000    0.0000    0.0000    0.0000    0.0000   -0.0000
       55 H19   1s     -0.0001    0.0001   -0.0000    0.0000   -0.0000    0.0000    0.0287    0.0063   -0.0300   -0.0139
       56 C20   1s     -0.2938    0.3977   -0.0091    0.0021   -0.0000    0.0000   -0.0270   -0.0145    0.0182    0.0230
       57 C20   2s     -0.0004    0.0005   -0.0000    0.0000    0.0000    0.0000    0.2151    0.1174   -0.1477   -0.1931
       58 C20   2px     0.0001   -0.0001    0.0000   -0.0000   -0.0000    0.0000   -0.0380   -0.0215    0.0239    0.0324
       59 C20   2py    -0.0001    0.0000   -0.0000    0.0000   -0.0000   -0.0000    0.0123   -0.0177   -0.0363    0.0142
       60 C20   2pz    -0.0000    0.0000   -0.0000   -0.0000    0.0000   -0.0000    0.0000   -0.0000    0.0000   -0.0000
       61 H21   1s      0.0001   -0.0002    0.0000   -0.0000    0.0000   -0.0000    0.0277    0.0156   -0.0215   -0.0301
       62 C22   1s      0.3921   -0.2998    0.0319   -0.0059    0.0000    0.0000   -0.0248   -0.0228    0.0032    0.0245
       63 C22   2s      0.0005   -0.0005    0.0001   -0.0000   -0.0000   -0.0000    0.1979    0.1830   -0.0275   -0.2051
       64 C22   2px     0.0001   -0.0001    0.0001   -0.0000   -0.0000   -0.0000    0.0353    0.0312   -0.0063   -0.0340
       65 C22   2py    -0.0000    0.0000    0.0000   -0.0000   -0.0000   -0.0000   -0.0017   -0.0230   -0.0383   -0.0067
       66 C22   2pz     0.0000   -0.0000    0.0000    0.0000   -0.0000    0.0000    0.0000   -0.0000    0.0000    0.0000
       67 H23   1s     -0.0001    0.0001   -0.0000    0.0000    0.0000    0.0000    0.0255    0.0248   -0.0037   -0.0321
       68 C24   1s     -0.4701    0.2989   -0.0928    0.0169   -0.0000   -0.0000   -0.0220   -0.0266   -0.0101    0.0137
       69 C24   2s     -0.0004    0.0003   -0.0001    0.0000    0.0000    0.0000    0.1756    0.2143    0.0842   -0.1126
       70 C24   2px     0.0001   -0.0001    0.0001   -0.0000   -0.0000   -0.0000   -0.0309   -0.0379   -0.0160    0.0164
       71 C24   2py     0.0000   -0.0001   -0.0002    0.0000   -0.0000   -0.0000    0.0158    0.0032   -0.0326   -0.0523
       72 C24   2pz    -0.0000    0.0000    0.0000    0.0000    0.0000    0.0000   -0.0000   -0.0000   -0.0000    0.0000
       73 H25   1s      0.0002   -0.0002    0.0001   -0.0000    0.0000    0.0000    0.0226    0.0288    0.0118   -0.0179
       74 C26   1s      0.1031   -0.0589    0.2973   -0.0539   -0.0000   -0.0000   -0.0180   -0.0273   -0.0231   -0.0075
       75 C26   2s      0.0002   -0.0002    0.0007   -0.0001    0.0001    0.0000    0.1441    0.2194    0.1869    0.0604
       76 C26   2px     0.0001   -0.0000    0.0001   -0.0000    0.0000    0.0000    0.0258    0.0382    0.0304    0.0074
       77 C26   2py     0.0000    0.0000   -0.0001    0.0000   -0.0000   -0.0000    0.0036   -0.0064   -0.0312   -0.0551
       78 C26   2pz    -0.0000   -0.0000   -0.0000    0.0000   -0.0000   -0.0000   -0.0000    0.0000    0.0000    0.0000
       79 H27   1s     -0.0000    0.0000    0.0001   -0.0000    0.0000    0.0000    0.0185    0.0295    0.0271    0.0098
       80 C28   1s      0.0956   -0.0646   -0.9312    0.1688   -0.0019   -0.0000   -0.0141   -0.0241   -0.0268   -0.0210
       81 C28   2s      0.0000   -0.0000   -0.0005    0.0001    0.0001    0.0000    0.1115    0.1932    0.2189    0.1767
       82 C28   2px     0.0000   -0.0000    0.0002   -0.0000    0.0000    0.0000   -0.0194   -0.0335   -0.0377   -0.0306
       83 C28   2py     0.0001   -0.0001   -0.0001    0.0000   -0.0003   -0.0000    0.0169    0.0229    0.0108   -0.0191
       84 C28   2pz     0.0000   -0.0000    0.0000    0.0000   -0.0000    0.0000   -0.0000    0.0000    0.0000   -0.0000
       85 H29   1s     -0.0000    0.0000    0.0006   -0.0001    0.0002    0.0000    0.0143    0.0259    0.0313    0.0272
       86 C30   1s     -0.0068    0.0045    0.0594   -0.0108    0.0333    0.0008   -0.0088   -0.0169   -0.0229   -0.0259
       87 C30   2s     -0.0000    0.0000    0.0005   -0.0001    0.0007    0.0000    0.0718    0.1378    0.1893    0.2179
       88 C30   2px     0.0000   -0.0000    0.0001   -0.0000    0.0001    0.0000    0.0133    0.0250    0.0331    0.0359
       89 C30   2py    -0.0000    0.0000    0.0001   -0.0000   -0.0001   -0.0000    0.0080    0.0120    0.0085   -0.0053
       90 C30   2pz     0.0000    0.0000    0.0000   -0.0000    0.0000    0.0000   -0.0000   -0.0000   -0.0000    0.0000
       91 H31   1s     -0.0000    0.0000    0.0002   -0.0000    0.0003    0.0000    0.0090    0.0180    0.0266    0.0335
       92 C32   1s     -0.0004    0.0003    0.0037   -0.0007   -0.9994   -0.0239   -0.0047   -0.0094   -0.0139   -0.0178
       93 C32   2s     -0.0000    0.0000    0.0001   -0.0000   -0.0005   -0.0000    0.0378    0.0764    0.1149    0.1509
       94 C32   2px    -0.0000    0.0000    0.0001   -0.0000    0.0002    0.0000   -0.0057   -0.0113   -0.0165   -0.0209
       95 C32   2py    -0.0000    0.0000    0.0002   -0.0000   -0.0003   -0.0000    0.0133    0.0264    0.0383    0.0476
       96 C32   2pz    -0.0000    0.0000   -0.0000    0.0000   -0.0000    0.0000    0.0000   -0.0000   -0.0000    0.0000
       97 H33   1s     -0.0000    0.0000    0.0001   -0.0000    0.0008    0.0000    0.0047    0.0100    0.0161    0.0230
       98 H34   1s     -0.0000    0.0000    0.0001   -0.0000    0.0008    0.0000    0.0049    0.0103    0.0163    0.0229
 
          Orbital       21        22        23        24        25        26        27        28        29        30    
          Energy       -1.0917   -1.0616   -1.0280   -0.9941   -0.9235   -0.8807   -0.8357   -0.7968   -0.7957   -0.7904
          Occ. No.      2.0000    2.0000    2.0000    2.0000    2.0000    2.0000    2.0000    2.0000    2.0000    2.0000
 
        1 C1    1s     -0.0207    0.0224   -0.0220    0.0176   -0.0148    0.0157   -0.0130    0.0061   -0.0069   -0.0025
        2 C1    2s      0.1822   -0.2053    0.2132   -0.1806    0.1784   -0.2146    0.2147   -0.1228    0.1466    0.0441
        3 C1    2px     0.0237   -0.0246    0.0226   -0.0162    0.0074    0.0023   -0.0247    0.0569   -0.0424   -0.0514
        4 C1    2py    -0.0528    0.0522   -0.0440    0.0268    0.0029   -0.0334    0.0746   -0.0646    0.0843    0.0182
        5 C1    2pz    -0.0000    0.0000   -0.0000   -0.0000    0.0000   -0.0000    0.0000    0.0000    0.0000   -0.0000
        6 H2    1s      0.0305   -0.0382    0.0444   -0.0419    0.0518   -0.0728    0.0901   -0.0766    0.0797    0.0428
        7 H3    1s      0.0303   -0.0380    0.0446   -0.0430    0.0563   -0.0812    0.0982   -0.0582    0.0790    0.0112
        8 C4    1s     -0.0254    0.0214   -0.0148    0.0069    0.0025   -0.0080    0.0120   -0.0096    0.0095    0.0053
        9 C4    2s      0.2182   -0.1891    0.1338   -0.0626   -0.0342    0.1058   -0.1720    0.1563   -0.1531   -0.0921
       10 C4    2px    -0.0329    0.0250   -0.0143    0.0044    0.0040   -0.0024   -0.0151    0.0781   -0.0304   -0.0963
       11 C4    2py     0.0299   -0.0623    0.0939   -0.1004    0.1238   -0.1471    0.1194   -0.0241    0.0409   -0.0101
       12 C4    2pz    -0.0000   -0.0000    0.0000   -0.0000    0.0000   -0.0000    0.0000    0.0000    0.0000   -0.0000
       13 H5    1s      0.0371   -0.0358    0.0281   -0.0142   -0.0113    0.0375   -0.0717    0.0979   -0.0749   -0.0818
       14 C6    1s     -0.0086   -0.0062    0.0178   -0.0197    0.0174   -0.0137    0.0038    0.0067   -0.0025   -0.0076
       15 C6    2s      0.0763    0.0516   -0.1616    0.1891   -0.1918    0.1711   -0.0651   -0.1024    0.0239    0.1361
       16 C6    2px     0.0147    0.0038   -0.0176    0.0197   -0.0142    0.0073   -0.0016    0.0794    0.0164   -0.1337
       17 C6    2py     0.0567   -0.0850    0.0862   -0.0517   -0.0319    0.1085   -0.1648    0.0723   -0.1199    0.0140
       18 C6    2pz    -0.0000   -0.0000    0.0000   -0.0000    0.0000   -0.0000    0.0000    0.0000    0.0000   -0.0000
       19 H7    1s      0.0127    0.0104   -0.0349    0.0449   -0.0558    0.0570   -0.0261   -0.0760   -0.0006    0.1181
       20 C8    1s      0.0109   -0.0224    0.0217   -0.0109   -0.0067    0.0148   -0.0146   -0.0008   -0.0081    0.0083
       21 C8    2s     -0.0958    0.2002   -0.1990    0.1016    0.0798   -0.1822    0.1934    0.0275    0.1210   -0.1486
       22 C8    2px     0.0172   -0.0291    0.0233   -0.0079   -0.0088    0.0068    0.0103    0.0715    0.0698   -0.1505
       23 C8    2py     0.0533   -0.0099   -0.0628    0.1078   -0.1345    0.0977    0.0266   -0.0754    0.1069    0.0107
       24 C8    2pz    -0.0000    0.0000    0.0000   -0.0000    0.0000   -0.0000    0.0000   -0.0000    0.0000    0.0000
       25 H9    1s     -0.0162    0.0384   -0.0428    0.0243    0.0235   -0.0605    0.0750    0.0459    0.0788   -0.1316
       26 C10   1s      0.0251   -0.0148   -0.0075    0.0201   -0.0179    0.0059    0.0093   -0.0017    0.0137   -0.0076
       27 C10   2s     -0.2146    0.1334    0.0663   -0.1926    0.1989   -0.0796   -0.1152    0.0199   -0.2234    0.1359
       28 C10   2px    -0.0326    0.0211    0.0051   -0.0194    0.0147   -0.0044    0.0081    0.0707    0.1087   -0.1435
       29 C10   2py     0.0204    0.0511   -0.0998    0.0706    0.0657   -0.1538    0.1251    0.0091   -0.0233   -0.0056
       30 C10   2pz    -0.0000    0.0000   -0.0000    0.0000    0.0000   -0.0000    0.0000   -0.0000    0.0000    0.0000
       31 H11   1s     -0.0371    0.0254    0.0145   -0.0458    0.0580   -0.0272   -0.0441   -0.0255   -0.1394    0.1228
       32 C12   1s      0.0185    0.0065   -0.0222    0.0144    0.0109   -0.0169    0.0058   -0.0010   -0.0110    0.0058
       33 C12   2s     -0.1572   -0.0601    0.2059   -0.1358   -0.1251    0.2025   -0.0672    0.0188    0.1888   -0.1065
       34 C12   2px     0.0222    0.0112   -0.0261    0.0122    0.0112   -0.0049   -0.0063    0.0891    0.1086   -0.1192
       35 C12   2py    -0.0571    0.0729    0.0107   -0.1067    0.1320   -0.0098   -0.1510    0.0626   -0.0991    0.0163
       36 C12   2pz    -0.0000    0.0000   -0.0000    0.0000   -0.0000    0.0000    0.0000   -0.0000    0.0000    0.0000
       37 H13   1s     -0.0274   -0.0113    0.0442   -0.0324   -0.0367    0.0670   -0.0254    0.0487    0.1269   -0.0998
       38 C14   1s     -0.0057    0.0240   -0.0051   -0.0192    0.0168    0.0043   -0.0149    0.0072    0.0030   -0.0035
       39 C14   2s      0.0467   -0.2126    0.0503    0.1835   -0.1881   -0.0435    0.2018   -0.1300   -0.0443    0.0633
       40 C14   2px     0.0047   -0.0297    0.0092    0.0181   -0.0146    0.0014   -0.0126    0.1215    0.0801   -0.0752
       41 C14   2py    -0.0692    0.0214    0.0848   -0.0870   -0.0955    0.1443    0.0197   -0.0915    0.1226   -0.0044
       42 C14   2pz    -0.0000    0.0000   -0.0000    0.0000    0.0000   -0.0000   -0.0000    0.0000    0.0000    0.0000
       43 H15   1s      0.0084   -0.0409    0.0106    0.0437   -0.0550   -0.0137    0.0797   -0.1096   -0.0537    0.0614
       44 C16   1s     -0.0218    0.0143    0.0161   -0.0172   -0.0144    0.0130    0.0079   -0.0126    0.0044    0.0012
       45 C16   2s      0.1878   -0.1252   -0.1513    0.1639    0.1625   -0.1504   -0.1165    0.2048   -0.0566   -0.0225
       46 C16   2px    -0.0299    0.0153    0.0208   -0.0156   -0.0133    0.0021   -0.0056    0.1441    0.0557   -0.0279
       47 C16   2py    -0.0210   -0.0774    0.0441    0.0995   -0.1184   -0.0823    0.1478    0.0317   -0.0556    0.0035
       48 C16   2pz    -0.0000    0.0000   -0.0000    0.0000    0.0000   -0.0000   -0.0000    0.0000   -0.0000   -0.0000
       49 H17   1s      0.0323   -0.0244   -0.0323    0.0390    0.0476   -0.0494   -0.0470    0.1479    0.0051   -0.0224
       50 C18   1s     -0.0218   -0.0143    0.0161    0.0172   -0.0144   -0.0130    0.0079    0.0126   -0.0044    0.0012
       51 C18   2s      0.1878    0.1252   -0.1513   -0.1639    0.1625    0.1504   -0.1165   -0.2048    0.0566   -0.0225
       52 C18   2px     0.0299    0.0153   -0.0208   -0.0156    0.0133    0.0021    0.0056    0.1441    0.0557    0.0279
       53 C18   2py     0.0210   -0.0774   -0.0441    0.0995    0.1184   -0.0823   -0.1478    0.0317   -0.0556   -0.0035
       54 C18   2pz     0.0000   -0.0000   -0.0000    0.0000   -0.0000    0.0000   -0.0000    0.0000   -0.0000   -0.0000
       55 H19   1s      0.0323    0.0244   -0.0323   -0.0390    0.0476    0.0494   -0.0470   -0.1479   -0.0051   -0.0224
       56 C20   1s     -0.0057   -0.0240   -0.0051    0.0192    0.0168   -0.0043   -0.0149   -0.0072   -0.0030   -0.0035
       57 C20   2s      0.0467    0.2126    0.0503   -0.1835   -0.1881    0.0435    0.2018    0.1300    0.0443    0.0633
       58 C20   2px    -0.0047   -0.0297   -0.0092    0.0181    0.0146    0.0014    0.0126    0.1215    0.0801    0.0752
       59 C20   2py     0.0692    0.0214   -0.0848   -0.0870    0.0955    0.1443   -0.0197   -0.0915    0.1226    0.0044
       60 C20   2pz     0.0000   -0.0000    0.0000    0.0000   -0.0000    0.0000   -0.0000   -0.0000   -0.0000    0.0000
       61 H21   1s      0.0084    0.0409    0.0106   -0.0437   -0.0550    0.0137    0.0797    0.1096    0.0537    0.0614
       62 C22   1s      0.0185   -0.0065   -0.0222   -0.0144    0.0109    0.0169    0.0058    0.0010    0.0110    0.0058
       63 C22   2s     -0.1572    0.0601    0.2059    0.1358   -0.1251   -0.2025   -0.0672   -0.0188   -0.1888   -0.1065
       64 C22   2px    -0.0222    0.0112    0.0261    0.0122   -0.0112   -0.0049    0.0063    0.0891    0.1086    0.1192
       65 C22   2py     0.0571    0.0729   -0.0107   -0.1067   -0.1320   -0.0098    0.1510    0.0626   -0.0991   -0.0163
       66 C22   2pz     0.0000   -0.0000   -0.0000    0.0000   -0.0000    0.0000    0.0000   -0.0000   -0.0000   -0.0000
       67 H23   1s     -0.0274    0.0113    0.0442    0.0324   -0.0367   -0.0670   -0.0254   -0.0487   -0.1269   -0.0998
       68 C24   1s      0.0251    0.0148   -0.0075   -0.0201   -0.0179   -0.0059    0.0093    0.0017   -0.0137   -0.0076
       69 C24   2s     -0.2146   -0.1334    0.0663    0.1926    0.1989    0.0796   -0.1152   -0.0199    0.2234    0.1359
       70 C24   2px     0.0326    0.0211   -0.0051   -0.0194   -0.0147   -0.0044   -0.0081    0.0707    0.1087    0.1435
       71 C24   2py    -0.0204    0.0511    0.0998    0.0706   -0.0657   -0.1538   -0.1251    0.0091   -0.0233    0.0056
       72 C24   2pz    -0.0000    0.0000   -0.0000    0.0000    0.0000    0.0000    0.0000   -0.0000   -0.0000   -0.0000
       73 H25   1s     -0.0371   -0.0254    0.0145    0.0458    0.0580    0.0272   -0.0441    0.0255    0.1394    0.1228
       74 C26   1s      0.0109    0.0224    0.0217    0.0109   -0.0067   -0.0148   -0.0146    0.0008    0.0081    0.0083
       75 C26   2s     -0.0958   -0.2002   -0.1990   -0.1016    0.0798    0.1822    0.1934   -0.0275   -0.1210   -0.1486
       76 C26   2px    -0.0172   -0.0291   -0.0233   -0.0079    0.0088    0.0068   -0.0103    0.0715    0.0698    0.1505
       77 C26   2py    -0.0533   -0.0099    0.0628    0.1078    0.1345    0.0977   -0.0266   -0.0754    0.1069   -0.0107
       78 C26   2pz    -0.0000   -0.0000    0.0000    0.0000   -0.0000    0.0000    0.0000    0.0000    0.0000    0.0000
       79 H27   1s     -0.0162   -0.0384   -0.0428   -0.0243    0.0235    0.0605    0.0750   -0.0459   -0.0788   -0.1316
       80 C28   1s     -0.0086    0.0062    0.0178    0.0197    0.0174    0.0137    0.0038   -0.0067    0.0025   -0.0076
       81 C28   2s      0.0763   -0.0516   -0.1616   -0.1891   -0.1918   -0.1711   -0.0651    0.1024   -0.0239    0.1361
       82 C28   2px    -0.0147    0.0038    0.0176    0.0197    0.0142    0.0073    0.0016    0.0794    0.0164    0.1337
       83 C28   2py    -0.0567   -0.0850   -0.0862   -0.0517    0.0319    0.1085    0.1648    0.0723   -0.1199   -0.0140
       84 C28   2pz    -0.0000   -0.0000   -0.0000   -0.0000    0.0000    0.0000   -0.0000   -0.0000    0.0000   -0.0000
       85 H29   1s      0.0127   -0.0104   -0.0349   -0.0449   -0.0558   -0.0570   -0.0261    0.0760    0.0006    0.1181
       86 C30   1s     -0.0254   -0.0214   -0.0148   -0.0069    0.0025    0.0080    0.0120    0.0096   -0.0095    0.0053
       87 C30   2s      0.2182    0.1891    0.1338    0.0626   -0.0342   -0.1058   -0.1720   -0.1563    0.1531   -0.0921
       88 C30   2px     0.0329    0.0250    0.0143    0.0044   -0.0040   -0.0024    0.0151    0.0781   -0.0304    0.0963
       89 C30   2py    -0.0299   -0.0623   -0.0939   -0.1004   -0.1238   -0.1471   -0.1194   -0.0241    0.0409    0.0101
       90 C30   2pz     0.0000   -0.0000    0.0000   -0.0000    0.0000   -0.0000   -0.0000   -0.0000   -0.0000    0.0000
       91 H31   1s      0.0371    0.0358    0.0281    0.0142   -0.0113   -0.0375   -0.0717   -0.0979    0.0749   -0.0818
       92 C32   1s     -0.0207   -0.0224   -0.0220   -0.0176   -0.0148   -0.0157   -0.0130   -0.0061    0.0069   -0.0025
       93 C32   2s      0.1822    0.2053    0.2132    0.1806    0.1784    0.2146    0.2147    0.1228   -0.1466    0.0441
       94 C32   2px    -0.0237   -0.0246   -0.0226   -0.0162   -0.0074    0.0023    0.0247    0.0569   -0.0424    0.0514
       95 C32   2py     0.0528    0.0522    0.0440    0.0268   -0.0029   -0.0334   -0.0746   -0.0646    0.0843   -0.0182
       96 C32   2pz     0.0000   -0.0000    0.0000   -0.0000    0.0000    0.0000   -0.0000    0.0000   -0.0000    0.0000
       97 H33   1s      0.0305    0.0382    0.0444    0.0419    0.0518    0.0728    0.0901    0.0766   -0.0797    0.0428
       98 H34   1s      0.0303    0.0380    0.0446    0.0430    0.0563    0.0812    0.0982    0.0582   -0.0790    0.0112
 
          Orbital       31        32        33        34        35        36        37        38        39        40    
          Energy       -0.7821   -0.7780   -0.7117   -0.7047   -0.6923   -0.6788   -0.6594   -0.6525   -0.6252   -0.6212
          Occ. No.      2.0000    2.0000    2.0000    2.0000    2.0000    2.0000    2.0000    2.0000    2.0000    2.0000
 
        1 C1    1s      0.0027   -0.0051    0.0004    0.0007   -0.0012   -0.0022    0.0040    0.0029    0.0066   -0.0033
        2 C1    2s     -0.0520    0.1175    0.0223    0.0643   -0.0404   -0.0508    0.0437    0.0295    0.0128   -0.0146
        3 C1    2px     0.0657   -0.0858    0.0886   -0.0801   -0.1121    0.1715    0.0438   -0.1966   -0.0336    0.2039
        4 C1    2py    -0.0235    0.0727    0.0755    0.1033   -0.1527   -0.0794    0.2488    0.0389    0.2872   -0.0172
        5 C1    2pz     0.0000   -0.0000    0.0000   -0.0000   -0.0000    0.0000   -0.0000   -0.0000   -0.0000    0.0000
        6 H2    1s     -0.0541    0.0924   -0.0394    0.0801    0.0437   -0.1338    0.0046    0.1452    0.0474   -0.1517
        7 H3    1s     -0.0128    0.0537    0.0740    0.0531   -0.1323   -0.0051    0.1716   -0.0377    0.1617    0.0652
        8 C4    1s     -0.0059    0.0096    0.0021    0.0037   -0.0047   -0.0016    0.0063   -0.0001    0.0055   -0.0002
        9 C4    2s      0.1081   -0.1726    0.0108   -0.0729    0.0143    0.0523   -0.0372   -0.0048   -0.0021   -0.0348
       10 C4    2px     0.1158   -0.1159    0.1519   -0.0202   -0.1990    0.0849    0.1652   -0.0690    0.1448    0.0067
       11 C4    2py     0.0189   -0.0116    0.0413   -0.0917   -0.0188    0.1665   -0.1164   -0.1678   -0.2341    0.1467
       12 C4    2pz     0.0000   -0.0000   -0.0000   -0.0000    0.0000    0.0000   -0.0000    0.0000   -0.0000   -0.0000
       13 H5    1s      0.0991   -0.1259    0.0897   -0.0406   -0.1098    0.0692    0.0893   -0.0398    0.1048   -0.0181
       14 C6    1s      0.0079   -0.0082   -0.0015   -0.0035    0.0042    0.0025   -0.0048   -0.0018   -0.0009    0.0021
[...]
   45 C16   2s     -0.0000   -0.0000    0.0000    0.0000   -0.0000
   46 C16   2px     0.0000    0.0000   -0.0000   -0.0000    0.0000
   47 C16   2py     0.0000    0.0000   -0.0000   -0.0000    0.0000
   48 C16   2pz     0.3651    0.1765   -0.4331   -0.0936    0.4683
   49 H17   1s     -0.0000    0.0000   -0.0000   -0.0000    0.0000
   50 C18   1s      0.0000   -0.0000   -0.0000    0.0000    0.0000
   51 C18   2s      0.0000   -0.0000   -0.0000   -0.0000    0.0000
   52 C18   2px     0.0000   -0.0000   -0.0000    0.0000    0.0000
   53 C18   2py    -0.0000    0.0000    0.0000    0.0000   -0.0000
   54 C18   2pz    -0.3651    0.1765    0.4331   -0.0935   -0.4683
   55 H19   1s      0.0000    0.0000    0.0000   -0.0000   -0.0000
   56 C20   1s     -0.0000   -0.0000    0.0000    0.0000   -0.0000
   57 C20   2s     -0.0000   -0.0000    0.0000    0.0000    0.0000
   58 C20   2px     0.0000    0.0000   -0.0000   -0.0000   -0.0000
   59 C20   2py     0.0000    0.0000    0.0000   -0.0000   -0.0000
   60 C20   2pz     0.1173   -0.3809   -0.3180    0.2362    0.4538
   61 H21   1s     -0.0000   -0.0000    0.0000    0.0000    0.0000
   62 C22   1s      0.0000    0.0000   -0.0000   -0.0000   -0.0000
   63 C22   2s      0.0000    0.0000   -0.0000   -0.0000   -0.0000
   64 C22   2px     0.0000    0.0000   -0.0000   -0.0000   -0.0000
   65 C22   2py    -0.0000   -0.0000    0.0000    0.0000    0.0000
   66 C22   2pz     0.2962    0.4203    0.0738   -0.3754   -0.4201
   67 H23   1s     -0.0000   -0.0000   -0.0000    0.0000    0.0000
   68 C24   1s     -0.0000   -0.0000    0.0000    0.0000    0.0000
   69 C24   2s     -0.0000   -0.0000    0.0000    0.0000    0.0000
   70 C24   2px     0.0000    0.0000   -0.0000   -0.0000   -0.0000
   71 C24   2py    -0.0000   -0.0000   -0.0000    0.0000    0.0000
   72 C24   2pz    -0.4208   -0.2598    0.1444    0.4433    0.3785
   73 H25   1s      0.0000    0.0000   -0.0000   -0.0000   -0.0000
   74 C26   1s      0.0000   -0.0000   -0.0000   -0.0000   -0.0000
   75 C26   2s      0.0000   -0.0000   -0.0000   -0.0000   -0.0000
   76 C26   2px     0.0000   -0.0000   -0.0000   -0.0000   -0.0000
   77 C26   2py     0.0000    0.0000    0.0000    0.0000    0.0000
   78 C26   2pz     0.2191   -0.0887   -0.3686   -0.4631   -0.3150
   79 H27   1s     -0.0000    0.0000    0.0000    0.0000    0.0000
   80 C28   1s     -0.0000    0.0000    0.0000    0.0000    0.0000
   81 C28   2s     -0.0000    0.0000    0.0000    0.0000    0.0000
   82 C28   2px     0.0000   -0.0000   -0.0000   -0.0000   -0.0000
   83 C28   2py    -0.0000    0.0000    0.0000    0.0000    0.0000
   84 C28   2pz     0.0853    0.3227    0.4483    0.4207    0.2522
   85 H29   1s     -0.0000   -0.0000   -0.0000   -0.0000   -0.0000
   86 C30   1s     -0.0000   -0.0000   -0.0000   -0.0000   -0.0000
   87 C30   2s     -0.0000   -0.0000   -0.0000   -0.0000   -0.0000
   88 C30   2px    -0.0000   -0.0000   -0.0000   -0.0000   -0.0000
   89 C30   2py     0.0000   -0.0000   -0.0000   -0.0000   -0.0000
   90 C30   2pz    -0.4170   -0.4451   -0.4074   -0.3095   -0.1668
   91 H31   1s      0.0000    0.0000    0.0000   -0.0000   -0.0000
   92 C32   1s      0.0000    0.0000    0.0000    0.0000    0.0000
   93 C32   2s      0.0000    0.0000    0.0000    0.0000    0.0000
   94 C32   2px    -0.0000   -0.0000   -0.0000   -0.0000   -0.0000
   95 C32   2py     0.0000    0.0000    0.0000    0.0000    0.0000
   96 C32   2pz     0.3798    0.3335    0.2656    0.1836    0.0937
   97 H33   1s     -0.0000   -0.0000    0.0000    0.0000    0.0000
   98 H34   1s     -0.0000   -0.0000   -0.0000   -0.0000   -0.0000
--
 
      Von Neumann Entropy (Root  1) =  2.46924
 

      Mulliken population Analysis for root number:  1
      -----------------------------------------------
 
 
++    Molecular charges:
      ------------------
 
      Mulliken charges per centre and basis function type
      ---------------------------------------------------
 
             C1      H2      H3      C4      H5      C6      H7      C8      H9      C10     H11     C12   
      1s     2.0003  0.8442  0.8383  2.0002  0.8413  2.0002  0.8463  2.0002  0.8459  2.0002  0.8460  2.0002
      2s     1.1775  0.0000  0.0000  1.1190  0.0000  1.1184  0.0000  1.1161  0.0000  1.1166  0.0000  1.1160
      2px    1.0889  0.0000  0.0000  1.0677  0.0000  1.0607  0.0000  1.0627  0.0000  1.0619  0.0000  1.0623
      2pz    1.0068  0.0000  0.0000  0.9952  0.0000  0.9991  0.0000  0.9993  0.0000  0.9996  0.0000  1.0000
      2py    1.0427  0.0000  0.0000  0.9793  0.0000  0.9736  0.0000  0.9768  0.0000  0.9748  0.0000  0.9758
      Total  6.3162  0.8442  0.8383  6.1614  0.8413  6.1521  0.8463  6.1551  0.8459  6.1531  0.8460  6.1544
 
      N-E   -0.3162  0.1558  0.1617 -0.1614  0.1587 -0.1521  0.1537 -0.1551  0.1541 -0.1531  0.1540 -0.1544
 
             H13     C14     H15     C16     H17     C18     H19     C20     H21     C22     H23     C24   
      1s     0.8460  2.0002  0.8461  2.0002  0.8459  2.0002  0.8459  2.0002  0.8461  2.0002  0.8460  2.0002
      2s     0.0000  1.1162  0.0000  1.1162  0.0000  1.1162  0.0000  1.1162  0.0000  1.1160  0.0000  1.1166
      2px    0.0000  1.0621  0.0000  1.0623  0.0000  1.0623  0.0000  1.0621  0.0000  1.0623  0.0000  1.0619
      2pz    0.0000  1.0001  0.0000  0.9998  0.0000  0.9998  0.0000  1.0001  0.0000  1.0000  0.0000  0.9996
      2py    0.0000  0.9751  0.0000  0.9756  0.0000  0.9756  0.0000  0.9751  0.0000  0.9758  0.0000  0.9748
      Total  0.8460  6.1537  0.8461  6.1541  0.8459  6.1541  0.8459  6.1537  0.8461  6.1544  0.8460  6.1531
 
      N-E    0.1540 -0.1537  0.1539 -0.1541  0.1541 -0.1541  0.1541 -0.1537  0.1539 -0.1544  0.1540 -0.1531
 
             H25     C26     H27     C28     H29     C30     H31     C32     H33     H34   
      1s     0.8460  2.0002  0.8459  2.0002  0.8463  2.0002  0.8413  2.0003  0.8442  0.8383
      2s     0.0000  1.1161  0.0000  1.1184  0.0000  1.1190  0.0000  1.1775  0.0000  0.0000
      2px    0.0000  1.0627  0.0000  1.0607  0.0000  1.0677  0.0000  1.0889  0.0000  0.0000
      2pz    0.0000  0.9993  0.0000  0.9991  0.0000  0.9952  0.0000  1.0068  0.0000  0.0000
      2py    0.0000  0.9768  0.0000  0.9736  0.0000  0.9793  0.0000  1.0427  0.0000  0.0000
      Total  0.8460  6.1551  0.8459  6.1521  0.8463  6.1614  0.8413  6.3162  0.8442  0.8383
 
      N-E    0.1540 -0.1551  0.1541 -0.1521  0.1537 -0.1614  0.1587 -0.3162  0.1558  0.1617
 
      Total electronic charge=  114.000000
 
      Total            charge=   -0.000000
--
 
 

      Expectation values of various properties for root number:  1
      -----------------------------------------------------------
 
 
++    Molecular properties:
      ---------------------
 
      Charge (e):
                      =   -0.0000
      Dipole Moment (Debye):
      Origin of the operator (Ang)=    0.0000    0.0000    0.0000
                   X=  1.0463E-05               Y= -8.1953E-06               Z=  1.3481E-06           Total=  1.3359E-05
      Quadrupole Moment (Debye*Ang):
      Origin of the operator (Ang)=    0.0000    0.0000    0.0000
                  XX= -1.0053E+02              XY= -1.0236E-01              XZ= -1.3351E-07              YY= -1.0499E+02
                  YZ= -4.6071E-06              ZZ= -1.1763E+02
      In traceless form (Debye*Ang)
                  XX=  1.0779E+01              XY= -1.5354E-01              XZ= -2.0027E-07              YY=  4.0964E+00
                  YZ= -6.9107E-06              ZZ= -1.4875E+01
--
 

      LoProp population Analysis for root number:  1
      -----------------------------------------------
 
 
++    LoProp Analysis:
      ----------------
 
 
 
  Input file to MOLDEN was generated!
 
 
++    Static properties:
      ------------------
 
 
      LoProp Charges per center
 

                   C1       H2       H3       C4       H5       C6       H7       C8       H9       C10   
      Nuclear      6.0000   1.0000   1.0000   6.0000   1.0000   6.0000   1.0000   6.0000   1.0000   6.0000
      Electronic  -6.2140  -0.8984  -0.8940  -6.0947  -0.8995  -6.0972  -0.9026  -6.0981  -0.9021  -6.0970
 
      Total       -0.2140   0.1016   0.1060  -0.0947   0.1005  -0.0972   0.0974  -0.0981   0.0979  -0.0970
 

                   H11      C12      H13      C14      H15      C16      H17      C18      H19      C20   
      Nuclear      1.0000   6.0000   1.0000   6.0000   1.0000   6.0000   1.0000   6.0000   1.0000   6.0000
      Electronic  -0.9023  -6.0979  -0.9023  -6.0976  -0.9023  -6.0977  -0.9022  -6.0977  -0.9022  -6.0976
 
      Total        0.0977  -0.0979   0.0977  -0.0976   0.0977  -0.0977   0.0978  -0.0977   0.0978  -0.0976
 

                   H21      C22      H23      C24      H25      C26      H27      C28      H29      C30   
      Nuclear      1.0000   6.0000   1.0000   6.0000   1.0000   6.0000   1.0000   6.0000   1.0000   6.0000
      Electronic  -0.9023  -6.0979  -0.9023  -6.0971  -0.9023  -6.0981  -0.9021  -6.0972  -0.9026  -6.0947
 
      Total        0.0977  -0.0979   0.0977  -0.0971   0.0977  -0.0981   0.0979  -0.0972   0.0974  -0.0947
 

                   H31      C32      H33      H34   
      Nuclear      1.0000   6.0000   1.0000   1.0000
      Electronic  -0.8995  -6.2140  -0.8984  -0.8940
 
      Total        0.1005  -0.2140   0.1016   0.1060
--
 
 
      Natural Bond Order Analysis for root number:  1
 
++    Natural Bond Order analysis
      ---------------------------
      Based on LoProp computed density
      -------------------------------------------------------------------------------------
      Atom A       Atom B       Bond Order | Atom A       Atom B       Bond Order
        C1           C4             0.999  |   C12          H13            0.990
        C6           C8             1.891  |   C12          C14            0.992
        C10          C12            1.884  |   C14          H15            0.990
        C14          C16            1.882  |   C16          H17            0.990
        C18          C20            1.882  |   C16          C18            0.992
        C22          C24            1.884  |   C18          H19            0.990
        C26          C28            1.891  |   C20          H21            0.990
        C30          C32            0.999  |   C20          C22            0.992
        C1           H2             0.993  |   C22          H23            0.990
        C1           H3             0.993  |   C24          H25            0.990
        C4           H5             0.990  |   C24          C26            0.992
        C4           C6             0.992  |   C26          H27            0.990
        C6           H7             0.990  |   C28          H29            0.990
        C8           H9             0.990  |   C28          C30            0.992
        C8           C10            0.992  |   C30          H31            0.990
        C10          H11            0.990  |   C32          H33            0.993
        C32          H34            0.993  |
      -------------------------------------------------------------------------------------
      NBO located     32.000 core electrons.
      NBO located     76.177 electrons involved in   33 bonds.
      The remaining    5.823 electrons are to be considered as diffuse
--
 
--
 
 
  Input file to MOLDEN was generated!
 
      Canonical orbitals are written to the RASORB file
      Natural orbitals for root   1 are written to the RASORB.1 file
      Spin density orbitals for root   1 are written to the SPDORB.1 file
 
--- Stop Module:  rasscf at Mon Oct 21 11:33:33 2019 /rc=0 ---
--- Module rasscf spent 4 hours and 53 minutes 
*** 
--- Start Module: caspt2 at Mon Oct 21 11:33:40 2019 
----------------------------------------------------------------------------------------------------
 DGA/MPI-2 Parallel Environment:    4 Molcas's processes are running on   1 node(s) x  4 cores each
----------------------------------------------------------------------------------------------------
 
()()()()()()()()()()()()()()()()()()()()()()()()()()()()()()()()()()()()()()()()()()()()()()()()()()

                                              &CASPT2

             launched 4 MPI processes, running in PARALLEL mode (work-sharing enabled)
                        available to each process: 20 GB of memory, 1 thread
()()()()()()()()()()()()()()()()()()()()()()()()()()()()()()()()()()()()()()()()()()()()()()()()()()
 
 Cholesky algorithm in CASPT2 =    1
 
 
++    Wave function specifications:
      -----------------------------
 
      Number of closed shell electrons          66
      Number of electrons in active shells      16
      Max number of holes in RAS1 space          0
      Max number of electrons in RAS3 space      0
      Number of inactive orbitals               33
      Number of active orbitals                 16
      Number of secondary orbitals              33
      Spin quantum number                      0.0
      State symmetry                             1
      Number of CSFs                             1
      Number of root(s) available                1
      Root passed to geometry opt.               1
      A file JOBMIX will be created.
      This is a CASSCF or RASSCF reference function
      This is a DMRG reference with exact 4-RDM, activated by 3RDM keyword in RASSCF
      CheMPS2 assumes pseudocanonical basis
--
 
++    Orbital specifications:
      -----------------------
 
      Symmetry species                           1
                                                 a
      Frozen orbitals                           16
      Inactive orbitals                         33
      Active orbitals                           16
      Secondary orbitals                        33
      Deleted orbitals                           0
      Number of basis functions                 98
--
 
      Type of Fock operator: STANDARD
      Type of 0-order Hamiltonian: STANDARD WITH DEFAULT IPEA
        "IP-EA" denominator shift =      0.25
      The input orbitals and the CI vector will be transformed.
 
--------------------------------------------------------------------------------
 Estimated memory requirements:
  POLY3 :                   269327
  RHS:                      555682
  SIGMA :                  1643922
  PRPCTL:                        0
 Available workspace:   2249958018
 
++ CASPT2 computation    1
 
********************************************************************************
 Multi-State initialization phase begins for group   1
--------------------------------------------------------------------------------
 CHEMPS2> CheMPS2 assumes pseudocanonical orbitals
********************************************************************************
 Compute H0 matrices for state    1
--------------------------------------------------------------------------------
 CHEMPS2> Read F.4RDM
--------------------------------------------------------------------------------
 H0 matrices have been computed.
 
********************************************************************************
  CASPT2 EQUATION SOLUTION
--------------------------------------------------------------------------------
 
  Total nr of CASPT2 parameters:
   Before reduction:     2850705
   After  reduction:     2848560
 
 The contributions to the second order correlation energy in atomic units.
-----------------------------------------------------------------------------------------------------------------------------
  IT.      VJTU        VJTI        ATVX        AIVX        VJAI        BVAT        BJAT        BJAI        TOTAL       RNORM  
-----------------------------------------------------------------------------------------------------------------------------
-------------------------------------------------------------------------------------------------------------------
 
  FINAL CASPT2 RESULT:
 
      Reference energy:        -616.0024534294
      E2 (Non-variational):      -0.6569732510
      E2 (Variational):          -0.6569732514
      Total energy:            -616.6594266808
      Residual norm:              0.0000000050
      Reference weight:           0.78466
 
      Contributions to the CASPT2 correlation energy
      Active & Virtual Only:         -0.0034370745
      One Inactive Excited:          -0.2261121077
      Two Inactive Excited:          -0.4274240688
 
 
++ Denominators, etc.
----------------------------------------------------------------------------------------------------
 Report on small energy denominators, large coefficients, and large energy contributions.
CASE  SYMM ACTIVE-MIX  NON-ACTIVE INDICES          DENOMINATOR     RHS VALUE       COEFFICIENT     CONTRIBUTION
VJTU     1  Mu1.0001  In1.036                       0.29472143      0.00000000     -0.00000000     -0.00000000
VJTU     1  Mu1.0001  In1.037                       0.27530054     -0.00000000      0.00000001     -0.00000000
VJTU     1  Mu1.0001  In1.038                       0.26850001     -0.00000000      0.00000001     -0.00000000
VJTU     1  Mu1.0001  In1.039                       0.24113731     -0.00000000      0.00000001     -0.00000000
VJTU     1  Mu1.0001  In1.040                       0.23695193     -0.00000000      0.00000000     -0.00000000
VJTU     1  Mu1.0001  In1.041                       0.21373752     -0.00000000      0.00000001     -0.00000000
VJTU     1  Mu1.0002  In1.041                       0.28441820      0.00000000     -0.00000001     -0.00000000
VJTU     1  Mu1.0001  In1.042                       0.21065447      0.00000000     -0.00000000     -0.00000000
VJTU     1  Mu1.0002  In1.042                       0.28133514      0.00000000     -0.00000001     -0.00000000
VJTU     1  Mu1.0001  In1.043                       0.19645009      0.00000000      0.00000000      0.00000000
VJTU     1  Mu1.0002  In1.043                       0.26713076      0.00000000     -0.00000000     -0.00000000
VJTU     1  Mu1.0001  In1.044                       0.18794298     -0.00000000      0.00000000     -0.00000000
VJTU     1  Mu1.0002  In1.044                       0.25862366      0.00000000     -0.00000000     -0.00000000
VJTU     1  Mu1.0001  In1.045                       0.17248825     -0.00000000      0.00000001     -0.00000000
VJTU     1  Mu1.0002  In1.045                       0.24316892      0.00000000     -0.00000000     -0.00000000
VJTU     1  Mu1.0001  In1.046                       0.16135527     -0.00000000      0.00000000     -0.00000000
VJTU     1  Mu1.0002  In1.046                       0.23203594      0.00000000     -0.00000000     -0.00000000
VJTU     1  Mu1.0001  In1.047                       0.15390445     -0.00000000      0.00000001     -0.00000000
VJTU     1  Mu1.0002  In1.047                       0.22458513     -0.00000000      0.00000000     -0.00000000
VJTU     1  Mu1.0003  In1.047                       0.29784955     -0.00000000      0.00000000     -0.00000000
VJTU     1  Mu1.0001  In1.048                       0.14810825      0.00000000     -0.00000000     -0.00000000
VJTU     1  Mu1.0002  In1.048                       0.21878893     -0.00000000      0.00000001     -0.00000000
VJTU     1  Mu1.0003  In1.048                       0.29205335      0.00000000     -0.00000000     -0.00000000
VJTU     1  Mu1.0001  In1.049                       0.14626327      0.00000000     -0.00000000     -0.00000000
VJTU     1  Mu1.0002  In1.049                       0.21694394     -0.00000000      0.00000000     -0.00000000
VJTU     1  Mu1.0003  In1.049                       0.29020836     -0.00000000      0.00000000     -0.00000000
--
 
   (Skipping property calculation,
    use PROP keyword to activate)
--
 
  Total CASPT2 energies:
::    CASPT2 Root  1     Total energy:   -616.65942668
 
--- Stop Module:  caspt2 at Mon Oct 21 11:41:40 2019 /rc=0 ---
--- Module caspt2 spent 8 minutes and 0 seconds 
--- Stop Module:  auto at Mon Oct 21 11:41:42 2019 /rc=0 ---
--- Module auto spent 5 hours and 1 minute 
--- Start Module: auto at Mon Oct 21 11:41:43 2019 
