   License is going to expire in 42 days  on Wednesday May 9th, 2018
   This copy of MOLCAS is licensed to Kristine Pierloot
                                                                       
                             ^^^                                       
                             ^^^          ++++  +++++  ++++++ +   ++   
                 ^^^        ^^^^^        ++  ++ ++  ++ ++     ++  ++   
                ^^^^^       ^^ ^^        ++  ++ ++  ++ ++     +++ ++   
                ^^ ^^      ^^   ^^       ++  ++ +++++  ++++   ++++++   
                ^^  ^^     ^^   ^^       ++  ++ ++     ++     ++ +++   
               ^^   ^  ^^^^  ^  ^^       ++  ++ ++     ++     ++  ++   
               ^^  ^   ^^^   ^^ ^^        ++++  ++     ++++++ ++   +   
               ^  ^^^   ^^  ^^^  ^^                                    
            ^^^   ^^^   ^   ^^^    ^^                                  
        ^^^^^^^  ^^^^^     ^^^^^   ^^^^^^                              
     ^^^^^^^^^   ^^^^^^^^^^^^^^^   ^^^^^^^^^                           
    ^^^^^^^^^^   ^^           ^^   ^^^    ^^^                          
    ^^^^^^^^^^       ^^**^^^        ^     ^^^                          
    ^^^^^^^^^^    ^^^^**^^^^^^^     ^  ^  ^^^                          
    ^^^^^^^^^^   **^^***********    ^  ^  ^^^                          
    ^^^^^^^^^   ^^***********^^^^   ^  ^  ^^^    ^^^^    ^^    ^^^^    
    ^^^^^^^^^   ^^^***********^^^   ^  ^  ^^^   ^^  ^^  ^^^^  ^^   ^   
    ^^^^^^^^^   ^^^^***********^^      ^  ^^^   ^      ^^  ^^ ^^       
    ^^^^^^^^     ***********^^**       ^  ^^^   ^      ^^  ^^  ^^^^    
    ^^^^^^        ^^^^^^^**^^^^        ^  ^^^   ^      ^^^^^^     ^^   
    ^^^     ^^^      ^^^**^^     ^     ^   ^^   ^^  ^^ ^^  ^^ ^   ^^   
          ^^^^^^^^^            ^^^^   ^^^        ^^^^  ^    ^  ^^^^    
     ^^^^^^^^^^^^^^^^^^^^^^^^^^^^^^^^^^^^^^^                           
        ^^^^^^^^^^^^^^^^^^^^^^^^^^^^^^^^^                              
            ^^^^^^^^^^^^^^^^^^^^^^^^^                                  
               ^^^^^^^^^^^^^^^^^^^        version 18.0                  
                   ^^^^^^^^^^^                                         
                       ^^^                tag o180313-0800                      
                                              $Px$                     
                                                                       
 OpenMolcas is free software; you can redistribute it and/or modify it 
 under the terms of the GNU Lesser General Public License version 2.1. 
 OpenMolcas is distributed in the hope that it will be useful, but it  
 is provided "as is" and without any express or implied warranties.    
 For more details see the full text of the license in the file         
 LICENSE or in <http://www.gnu.org/licenses/>.                         
                                                                       
                 Copyright (C) The OpenMolcas Authors                  
           For the author list and the recommended citation,           
                   consult the file CONTRIBUTORS.md                    

configuration info
------------------
C Compiler ID: Intel
C flags: -std=gnu99
Fortran Compiler ID: Intel
Fortran flags: -fpp -i8 -r8 -heap-arrays
Definitions: _MOLCAS_;_HAVE_EXTRA_;_I8_;_LINUX_;_MOLCAS_MPP_;SCALAPACK;_MKL_
Parallel: ON (GA=OFF)


   -------------------------------------------------------------------
  |                                                                   
  |   Project         = fes
  |   Submitted from  = /home/tccm1/polyene/fes
  |   Scratch area    = /temp0/tccm1/fes.work
  |   Save outputs to = WORKDIR
  |   Molcas          = /home/tccm1/source/molcas-extra/build
  |                                                                   
  |   Scratch area is NOT empty
  |                                                                   
  |       MOLCAS_TRAP = ON                  
  |      MOLCAS_PRINT = 2                   
  |     MOLCAS_NPROCS = 1                   
  |     MOLCAS_SOURCE = /home/tccm1/source/molcas-extra/build
  |                                                                   
   -------------------------------------------------------------------
--- Start Module: auto at Wed Mar 28 18:37:04 2018 

++ ---------   Input file   ---------

 >> COPY $CurrDir/startorb $WorkDir/$Project.RasOrb
  &RASSCF &END                                                                   
    Symmetry                                                                        
      3                                                                           
    Spin                                                                            
      11                                                                           
    nActEl
      10    0    0    
    Inactive          
      25  19  20  24
    Ras2
      6   4   6   4
    lumorb                                                                          
    ITERations 
      12 100
    DAVTolerance 
      1.0E-5
    DMRG 
      500

-- ----------------------------------

*** 
--- Start Module: rasscf at Wed Mar 28 18:37:04 2018 
 
()()()()()()()()()()()()()()()()()()()()()()()()()()()()()()()()()()()()()()()()()()()()()()()()()()

                                              &RASSCF

                       only a single process is used, running in SERIAL mode
                       available to each process: 5.0 GB of memory, 1 thread
()()()()()()()()()()()()()()()()()()()()()()()()()()()()()()()()()()()()()()()()()()()()()()()()()()
 
 
      Header of the ONEINT file:
      --------------------------
      
      Integrals generated by seward 4.2.0  , Wed Mar 28 18:34:29 2018
 
 
      OrdInt status: non-squared
 
 
      Cartesian coordinates in Angstrom:
      -----------------------------------------------------
      No.  Label        X            Y            Z        
      -----------------------------------------------------
       1   FE1        0.00000000   0.00000000   1.44712000
       2   S2         0.72885700  -1.61793300   0.00000000
       3   S3         1.63499000   0.80290600   2.89045900
       4   C4        -1.91503200   0.73499400   3.84936900
       5   H5        -2.33901000   1.51350700   3.19876600
       6   H6        -2.61538900   0.53796400   4.67755100
       7   H7        -0.95850900   1.10610100   4.24788900
       8   FE1        0.00000000   0.00000000  -1.44712000
       9   S2        -0.72885700   1.61793300   0.00000000
      10   S3        -1.63499000  -0.80290600   2.89045900
      11   S3        -1.63499000  -0.80290600  -2.89045900
      12   S3         1.63499000   0.80290600  -2.89045900
      13   C4         1.91503200  -0.73499400   3.84936900
      14   C4         1.91503200  -0.73499400  -3.84936900
      15   C4        -1.91503200   0.73499400  -3.84936900
      16   H5         2.33901000  -1.51350700   3.19876600
      17   H5         2.33901000  -1.51350700  -3.19876600
      18   H5        -2.33901000   1.51350700  -3.19876600
      19   H6         2.61538900  -0.53796400   4.67755100
      20   H6         2.61538900  -0.53796400  -4.67755100
      21   H6        -2.61538900   0.53796400  -4.67755100
      22   H7         0.95850900  -1.10610100   4.24788900
      23   H7         0.95850900  -1.10610100  -4.24788900
      24   H7        -0.95850900   1.10610100  -4.24788900
      -----------------------------------------------------
      Nuclear repulsion energy = 2319.88713954
 
++    Wave function specifications:
      -----------------------------
 
      Number of closed shell electrons         176
      Number of electrons in active shells      10
      Max number of holes in RAS1 space          0
      Max nr of electrons in RAS3 space          0
      Number of inactive orbitals               88
      Number of active orbitals                 20
      Number of secondary orbitals              32
      Spin quantum number                      5.0
      State symmetry                             3
--
 
++    Orbital specifications:
      -----------------------
 
      Symmetry species                           1   2   3   4
                                                ag  bg  au  bu
      Frozen orbitals                            0   0   0   0
      Inactive orbitals                         25  19  20  24
      Active orbitals                            6   4   6   4
      RAS1 orbitals                              0   0   0   0
      RAS2 orbitals                              6   4   6   4
      RAS3 orbitals                              0   0   0   0
      Secondary orbitals                         8   8   8   8
      Deleted orbitals                           0   0   0   0
      Number of basis functions                 39  31  34  36
--
 
++    DMRG sweep specifications:
      --------------------------
 
      Number of renormalized basis             500
      Number of root(s) required                 1
      Maximum number of sweeps                   8
      Maximum number of sweeps in RDM           40
      Threshold for restarting               0.500E-02
      Minimum Davidson tolerance             0.100E-04
      DMRG convergence threshold             0.500E-08
      Noise prefactor                        0.500E-01
      Restart from previous calculation          F
      Calculate 3-RDM and F.4-RDM                F
      Restart scheme in 3-RDM and F.4-RDM        0
      Root chosen for geometry opt.              1
--
 
++    Optimization specifications:
      ----------------------------
 
      RASSCF algorithm: LK Cholesky
      Maximum number of macro iterations        12
      Maximum number of SX iterations          100
      Threshold for RASSCF energy            0.100E-07
      Threshold for max MO rotation          0.100E+00
      Threshold for max BLB element          0.100E-03
      Level shift parameter                  0.500E+00
      Make Quasi-Newton update
--
 
      The MO-coefficients are taken from the file:
      INPORB                                                                                                                          
      Title: RASSCF natural orbitals for root number  1 E=    -5092.809550991438           
 
      Total molecular charge   -2.00
 
      ************************************************************************************************************************
      *                                                                                                                      *
      *                                            Wave function control section                                             *
      *                                                                                                                      *
      ************************************************************************************************************************
 
 
                                         RASSCF iterations: Energy and convergence statistics
                                         ----------------------------------------------------
 
      Iter CI   SX   CI       RASSCF       Energy    max ROT     max BLB   max BLB  Level Ln srch  Step   QN   Walltime
          iter iter root      energy       change     param      element    value   shift minimum  type update hh:mm:ss
 CHEMPS2> Start DMRG from scratch
 CHEMPS2> ITERATION :   1
 CHEMPS2> Root   1 :: DMRG energy convergence :   0.15E-09
 CHEMPS2> Fully restart DMRG from previous step
 CHEMPS2> ITERATION :   1
 CHEMPS2> Root   1 :: DMRG energy convergence :   0.91E-12
      Total energies have been shifted. Add                -5000.00 au
        1   0    6    1   -92.81060832    0.00E+00   0.22E-02   13  36 4  0.29E-03*  0.51   0.00    SX    NO    0:01:02
 CHEMPS2> Fully restart DMRG from previous step
 CHEMPS2> ITERATION :   2
 CHEMPS2> Root   1 :: DMRG energy convergence :   0.14E-10
        2   0    5    1   -92.81060903   -0.71E-06* -0.17E-03   28  35 1 -0.90E-04   0.51   0.00    SX    NO    0:00:18
 CHEMPS2> Fully restart DMRG from previous step
 CHEMPS2> ITERATION :   3
 CHEMPS2> Root   1 :: DMRG energy convergence :   0.16E-10
        3   0    5    1   -92.81060910   -0.72E-07* -0.20E-03   15  39 1 -0.61E-04   0.51   0.00    SX    NO    0:00:18
 CHEMPS2> Fully restart DMRG from previous step
 CHEMPS2> ITERATION :   4
 CHEMPS2> Root   1 :: DMRG energy convergence :   0.91E-12
        4   0    5    1   -92.81060912   -0.17E-07* -0.70E-04   26  30 4  0.15E-04   0.51   0.00    SX    NO    0:00:18
 CHEMPS2> Fully restart DMRG from previous step
 CHEMPS2> ITERATION :   5
 CHEMPS2> Root   1 :: DMRG energy convergence :   0.15E-10
        5   0    4    1   -92.81060912   -0.30E-08  -0.89E-04   13  36 4  0.11E-04   0.51   2.50    QN   YES    0:00:18
      Convergence after  5 iterations
 CHEMPS2> Fully restart DMRG from previous step
 CHEMPS2> ITERATION :   6
 CHEMPS2> Save natorb checkpoint files
 CHEMPS2> Root   1 :: DMRG energy convergence :   0.18E-10
        6   0    4    1   -92.81060912   -0.83E-09  -0.89E-04   15  39 1  0.11E-04   0.51   2.50    QN   YES    0:00:18
 CHEMPS2> Fully restart DMRG from previous step
 CHEMPS2> ITERATION :   6
 CHEMPS2> Root   1 :: DMRG energy convergence :   0.14E-10
 
      Natural orbitals and occupation numbers for root  1
      sym 1:   0.996702   0.996757   0.996965   0.003233   0.003757   0.003069
      sym 2:   0.996834   0.996923   0.003344   0.003046
      sym 3:   0.996853   0.996810   0.996601   0.003103   0.002774   0.003362
      sym 4:   0.996686   0.996806   0.003059   0.003315
 
      ************************************************************************************************************************
      *                                                                                                                      *
      *                                                    Final results                                                     *
      *                                                                                                                      *
      ************************************************************************************************************************
 
 
++    Wave function specifications:
      -----------------------------
 
      Number of closed shell electrons         176
      Number of electrons in active shells      10
      Max number of holes in RAS1 space          0
      Max nr of electrons in RAS3 space          0
      Number of inactive orbitals               88
      Number of active orbitals                 20
      Number of secondary orbitals              32
      Spin quantum number                      5.0
      State symmetry                             3
--
 
++    Orbital specifications:
      -----------------------
 
      Symmetry species                           1   2   3   4
                                                ag  bg  au  bu
      Frozen orbitals                            0   0   0   0
      Inactive orbitals                         25  19  20  24
      Active orbitals                            6   4   6   4
      RAS1 orbitals                              0   0   0   0
      RAS2 orbitals                              6   4   6   4
      RAS3 orbitals                              0   0   0   0
      Secondary orbitals                         8   8   8   8
      Deleted orbitals                           0   0   0   0
      Number of basis functions                 39  31  34  36
--
 
++    DMRG sweep specifications:
      --------------------------
 
      Number of renormalized basis             500
      Number of root(s) required                 1
      Maximum number of sweeps                   8
      Maximum number of sweeps in RDM           40
      Threshold for restarting               0.500E-02
      Minimum Davidson tolerance             0.100E-04
      DMRG convergence threshold             0.500E-08
      Noise prefactor                        0.500E-01
      Restart from previous calculation          F
      Calculate 3-RDM and F.4-RDM                F
      Restart scheme in 3-RDM and F.4-RDM        0
      Root chosen for geometry opt.              1
--
 
++    Final optimization conditions:
      ------------------------------
 
      Average CI energy                           -5092.81060912
      RASSCF energy for state  1                  -5092.81060912
      Super-CI energy                                -0.00000000
      RASSCF energy change                           -0.00000000
      Max change in MO coefficients               0.182E-03
      Max non-diagonal density matrix element    -0.886E-04
      Maximum BLB matrix element                  0.108E-04
      (orbital pair  15,  39 in symmetry   1)
      Norm of electronic gradient            0.149E-04
--
 
 
      Final state energy(ies):
      ------------------------
 
::    RASSCF root number  1 Total energy:  -5092.81060912
 
++    Molecular orbitals:
      -------------------
 
      Pseudonatural active orbitals and approximate occupation numbers
 
 
 
 
      Molecular orbitals for symmetry species 1: ag 
 
 
      Orbital            1         2         3         4         5         6         7         8         9        10
      Energy     -263.6095  -91.9317  -91.8729  -32.4059  -27.4718  -11.0930   -8.7086   -8.6547   -6.3400   -6.3376
      Occ. No.      2.0000    2.0000    2.0000    2.0000    2.0000    2.0000    2.0000    2.0000    2.0000    2.0000
 
    1 FE1   1s      1.0000   -0.0000   -0.0000   -0.0000    0.0000   -0.0000    0.0000    0.0000    0.0000    0.0000
    2 FE1   2s      0.0000   -0.0000   -0.0000    1.0000    0.0000   -0.0000    0.0000    0.0000    0.0000    0.0000
    3 FE1   3s     -0.0000   -0.0000   -0.0000    0.0011    0.0000   -0.0001   -0.0000    0.0000   -0.0000    0.0000
    4 FE1   4s      0.0000   -0.0000   -0.0000   -0.0001    0.0000   -0.0007   -0.0001   -0.0001   -0.0002    0.0003
    5 FE1   5s     -0.0000   -0.0000   -0.0000    0.0001    0.0000   -0.0004    0.0002    0.0002    0.0000    0.0001
    6 FE1   2pz     0.0000   -0.0000    0.0000   -0.0000    1.0000   -0.0000   -0.0000    0.0000    0.0000    0.0000
    7 FE1   3pz    -0.0000   -0.0000    0.0000    0.0000    0.0000   -0.0001   -0.0000    0.0001   -0.0000    0.0000
    8 FE1   4pz    -0.0000   -0.0000   -0.0000   -0.0000    0.0000   -0.0007   -0.0003    0.0005   -0.0003    0.0004
    9 FE1   5pz     0.0000   -0.0000    0.0000   -0.0000    0.0002   -0.0003   -0.0001    0.0001   -0.0001    0.0001
   10 FE1   3d2-    0.0000    0.0000   -0.0000   -0.0000   -0.0001   -0.0000   -0.0000    0.0001    0.0000    0.0000
   11 FE1   4d2-    0.0000    0.0000   -0.0000   -0.0000    0.0000    0.0000   -0.0001    0.0002    0.0001    0.0001
   12 FE1   3d0    -0.0000    0.0000    0.0000   -0.0000    0.0000   -0.0000   -0.0000   -0.0000   -0.0001    0.0000
   13 FE1   4d0    -0.0000    0.0000    0.0000    0.0000    0.0000   -0.0001   -0.0001   -0.0001   -0.0001    0.0001
   14 FE1   3d2+    0.0000    0.0000   -0.0000   -0.0000   -0.0001   -0.0000   -0.0001    0.0001   -0.0001    0.0000
   15 FE1   4d2+    0.0000    0.0000   -0.0000   -0.0000    0.0000   -0.0001   -0.0002    0.0002   -0.0002    0.0001
   16 S2    1s      0.0000   -0.0000    1.0000   -0.0000    0.0000   -0.0000   -0.0000    0.0000   -0.0000    0.0000
   17 S2    2s      0.0000    0.0000    0.0000    0.0000    0.0000   -0.0000   -0.0001    1.0000   -0.0000    0.0000
   18 S2    3s     -0.0000    0.0000   -0.0004    0.0000    0.0000   -0.0000   -0.0002    0.0078   -0.0001    0.0001
   19 S2    2px     0.0000   -0.0000   -0.0000   -0.0000   -0.0000    0.0000    0.0000   -0.0049   -0.0000   -0.0000
   20 S2    3px     0.0000    0.0000    0.0000   -0.0000   -0.0000    0.0001    0.0000   -0.0005    0.0000   -0.0000
   21 S2    2py    -0.0000   -0.0000    0.0001    0.0000    0.0000   -0.0000   -0.0000    0.0106   -0.0000    0.0000
   22 S2    3py    -0.0000   -0.0000   -0.0000    0.0000   -0.0000   -0.0002   -0.0000    0.0010   -0.0000    0.0001
   23 S3    1s      0.0000    1.0000    0.0000   -0.0000   -0.0000   -0.0000    0.0000   -0.0000   -0.0000    0.0001
   24 S3    2s      0.0000    0.0000    0.0000    0.0000   -0.0000   -0.0001    0.9999    0.0000   -0.0077    0.0116
   25 S3    3s     -0.0000   -0.0004    0.0000    0.0000   -0.0000   -0.0002    0.0075   -0.0003    0.0009   -0.0014
   26 S3    2px     0.0000   -0.0000   -0.0000   -0.0000    0.0000   -0.0000   -0.0040    0.0000    0.4029    0.5835
   27 S3    3px     0.0000   -0.0000    0.0000   -0.0000    0.0000   -0.0003   -0.0004    0.0001    0.0029    0.0039
   28 S3    2py     0.0000   -0.0001   -0.0000   -0.0000    0.0000    0.0000   -0.0133    0.0000   -0.6076    0.7466
   29 S3    3py     0.0000    0.0000    0.0000   -0.0000   -0.0000    0.0003   -0.0010    0.0000   -0.0051    0.0052
   30 S3    2pz     0.0000    0.0000   -0.0000   -0.0000    0.0000   -0.0000    0.0019    0.0000    0.6844    0.3194
   31 S3    3pz     0.0000   -0.0000   -0.0000   -0.0000   -0.0000   -0.0004    0.0002    0.0000    0.0053    0.0019
   32 C4    1s      0.0000    0.0000    0.0000   -0.0000    0.0000    1.0002   -0.0001   -0.0000   -0.0002    0.0001
   33 C4    2s      0.0000    0.0000    0.0000   -0.0000   -0.0000    0.0011   -0.0003   -0.0000   -0.0002    0.0002
   34 C4    2px     0.0000    0.0000   -0.0000   -0.0000   -0.0000   -0.0000   -0.0001    0.0000    0.0000   -0.0000
   35 C4    2py    -0.0000   -0.0000   -0.0000    0.0000    0.0000    0.0001    0.0001    0.0000    0.0001   -0.0002
   36 C4    2pz    -0.0000   -0.0000   -0.0000    0.0000    0.0000    0.0001    0.0001    0.0000    0.0000   -0.0000
   37 H5    1s      0.0000    0.0000    0.0000   -0.0000   -0.0000   -0.0007   -0.0000   -0.0000   -0.0001   -0.0000
   38 H6    1s      0.0000   -0.0000    0.0000   -0.0000   -0.0000   -0.0009    0.0000   -0.0000   -0.0001   -0.0000
   39 H7    1s      0.0000   -0.0000    0.0000   -0.0000   -0.0000   -0.0007    0.0001   -0.0001   -0.0000   -0.0000
 
 
      Orbital           11        12        13        14        15        16        17        18        19        20
      Energy       -6.3355   -6.2849   -6.2824   -4.2102   -2.7143   -0.8022   -0.6517   -0.6064   -0.3909   -0.3801
      Occ. No.      2.0000    2.0000    2.0000    2.0000    2.0000    2.0000    2.0000    2.0000    2.0000    2.0000
 
    1 FE1   1s      0.0000   -0.0000   -0.0000   -0.0000    0.0000   -0.0006   -0.0019    0.0002   -0.0005    0.0002
    2 FE1   2s      0.0000   -0.0000   -0.0000   -0.0013    0.0001   -0.0045   -0.0137    0.0017   -0.0039    0.0014
    3 FE1   3s      0.0000   -0.0001    0.0000    0.9991    0.0007   -0.0278   -0.0802    0.0112   -0.0204    0.0079
    4 FE1   4s     -0.0000   -0.0005   -0.0000   -0.0051   -0.0003   -0.0062    0.1401   -0.0640    0.0023    0.0022
    5 FE1   5s     -0.0000    0.0000   -0.0000    0.0043   -0.0001   -0.0427   -0.0426   -0.0075   -0.0195    0.0162
    6 FE1   2pz     0.0000    0.0000    0.0000   -0.0000   -0.0001   -0.0007    0.0020    0.0014   -0.0007    0.0003
    7 FE1   3pz     0.0000    0.0001   -0.0000   -0.0001    0.9987   -0.0184    0.0495    0.0359   -0.0154    0.0058
    8 FE1   4pz     0.0002    0.0005   -0.0000   -0.0005   -0.0097   -0.0205   -0.0648   -0.0918    0.0060   -0.0154
    9 FE1   5pz     0.0001    0.0001   -0.0000   -0.0002    0.0085   -0.0115    0.0041   -0.0045   -0.0049   -0.0011
   10 FE1   3d2-    0.0000    0.0000   -0.0000   -0.0000   -0.0048    0.0108   -0.0407   -0.0460    0.0072   -0.0063
   11 FE1   4d2-   -0.0000    0.0002   -0.0000   -0.0001    0.0008    0.0065   -0.0145   -0.0133    0.0012   -0.0036
   12 FE1   3d0     0.0000   -0.0000   -0.0000   -0.0000   -0.0004    0.0023    0.0268   -0.0010    0.0149    0.0081
   13 FE1   4d0     0.0001    0.0000    0.0000    0.0005   -0.0008   -0.0060    0.0094   -0.0028    0.0015   -0.0002
   14 FE1   3d2+   -0.0000    0.0000    0.0000    0.0000   -0.0039    0.0073   -0.0373   -0.0378    0.0059   -0.0181
   15 FE1   4d2+   -0.0001    0.0001    0.0001   -0.0000    0.0008   -0.0028   -0.0123   -0.0120    0.0024   -0.0027
   16 S2    1s      0.0000   -0.0001    0.0000    0.0000    0.0000   -0.0000   -0.0025   -0.0006    0.0000   -0.0002
   17 S2    2s      0.0000   -0.0115    0.0000    0.0000    0.0005   -0.0009   -0.0293   -0.0074    0.0002   -0.0017
   18 S2    3s      0.0001    0.0017    0.0000    0.0023   -0.0057    0.0369    0.7974    0.2293   -0.0332    0.0266
   19 S2    2px    -0.0000   -0.4173    0.9087    0.0001   -0.0003    0.0006    0.0037    0.0009    0.0002    0.0006
   20 S2    3px     0.0000   -0.0031    0.0059   -0.0010    0.0022    0.0000   -0.0503   -0.0081   -0.0022   -0.0138
   21 S2    2py     0.0000    0.9087    0.4173   -0.0002    0.0006   -0.0013   -0.0082   -0.0023   -0.0005   -0.0002
   22 S2    3py     0.0000    0.0067    0.0027    0.0022   -0.0052   -0.0024    0.1126    0.0197    0.0054    0.0007
   23 S3    1s     -0.0000   -0.0000    0.0000    0.0000    0.0000   -0.0021   -0.0001    0.0013   -0.0001   -0.0001
   24 S3    2s     -0.0005   -0.0000    0.0000    0.0001   -0.0002   -0.0242   -0.0019    0.0169    0.0001   -0.0005
   25 S3    3s      0.0000   -0.0001    0.0000    0.0016    0.0041    0.4626    0.1352   -0.6990   -0.0909    0.0096
   26 S3    2px    -0.7051    0.0000   -0.0000    0.0001    0.0003   -0.0010    0.0017   -0.0037    0.0088    0.0018
   27 S3    3px    -0.0041    0.0001   -0.0000   -0.0017   -0.0034   -0.0203   -0.0242    0.0456   -0.1729   -0.0388
   28 S3    2py     0.2706   -0.0000   -0.0000    0.0000    0.0002    0.0119   -0.0004   -0.0014    0.0012   -0.0036
   29 S3    3py     0.0016    0.0000    0.0000   -0.0009   -0.0020   -0.0945    0.0024    0.0176   -0.0334    0.0685
   30 S3    2pz     0.6554   -0.0000    0.0000    0.0001    0.0002   -0.0067    0.0024   -0.0026    0.0018   -0.0067
   31 S3    3pz     0.0039   -0.0000    0.0000   -0.0012   -0.0026    0.0222   -0.0186    0.0364   -0.0287    0.1263
   32 C4    1s     -0.0000   -0.0000   -0.0000    0.0000   -0.0001   -0.0380    0.0065   -0.0168    0.0003   -0.0002
   33 C4    2s     -0.0000   -0.0000   -0.0000    0.0001   -0.0003    0.5475   -0.1232    0.3476    0.0034   -0.0126
   34 C4    2px     0.0001   -0.0000   -0.0000    0.0001   -0.0000    0.0188    0.0094   -0.0442    0.5254    0.1742
   35 C4    2py    -0.0000   -0.0000   -0.0000    0.0001    0.0002   -0.0379   -0.0308    0.1802    0.1957   -0.2809
   36 C4    2pz     0.0001    0.0000    0.0000   -0.0002    0.0000   -0.0336   -0.0256    0.1135   -0.0802    0.4810
   37 H5    1s      0.0000    0.0000    0.0000   -0.0004   -0.0003    0.1213   -0.0339    0.1510   -0.0122   -0.4410
   38 H6    1s     -0.0000   -0.0000    0.0000   -0.0001    0.0004    0.1194   -0.0453    0.1568   -0.3503    0.2466
   39 H7    1s      0.0000   -0.0000    0.0000   -0.0003   -0.0001    0.1232   -0.0356    0.1382    0.3858    0.1835
 
 
      Orbital           21        22        23        24        25        26        27        28        29        30
      Energy       -0.2593   -0.2126   -0.1631   -0.1302   -0.0923    0.0000    0.0000    0.0000    0.0000    0.0000
      Occ. No.      2.0000    2.0000    2.0000    2.0000    2.0000    0.9967    0.9968    0.9970    0.0032    0.0038
 
    1 FE1   1s     -0.0011    0.0024    0.0000   -0.0002   -0.0002    0.0002    0.0003   -0.0002   -0.0011   -0.0017
    2 FE1   2s     -0.0082    0.0176    0.0003   -0.0011   -0.0014    0.0015    0.0025   -0.0012   -0.0081   -0.0124
    3 FE1   3s     -0.0424    0.0874    0.0026   -0.0055   -0.0069    0.0073    0.0120   -0.0053   -0.0369   -0.0560
    4 FE1   4s      0.1992   -0.1580   -0.0983   -0.0122   -0.0119   -0.0081   -0.0271    0.0464   -0.0169   -0.0904
    5 FE1   5s     -0.0777    0.1293    0.0359    0.0034   -0.0082    0.0153    0.0266   -0.0225    0.0905    0.1750
    6 FE1   2pz    -0.0002   -0.0019    0.0035    0.0008    0.0001   -0.0004   -0.0007   -0.0008   -0.0004    0.0019
    7 FE1   3pz    -0.0048   -0.0369    0.0677    0.0153    0.0021   -0.0074   -0.0133   -0.0206   -0.0142    0.0343
    8 FE1   4pz     0.0874    0.1184   -0.2280   -0.0822   -0.0450    0.0360    0.0502    0.0625   -0.0526    0.0652
    9 FE1   5pz     0.0068    0.0021   -0.0009   -0.0056   -0.0056   -0.0003   -0.0021   -0.0029    0.0015   -0.0260
   10 FE1   3d2-    0.0891    0.0279   -0.0701   -0.0539    0.1442   -0.7009    0.0658   -0.6783   -0.1153    0.0084
   11 FE1   4d2-    0.0210    0.0025   -0.0019   -0.0149    0.0365    0.0775   -0.0085    0.0671   -0.8742    0.1767
   12 FE1   3d0     0.0198   -0.1435    0.0633   -0.0882   -0.0616    0.4298    0.7870   -0.3803    0.0327    0.0824
   13 FE1   4d0     0.0095   -0.0387    0.0188   -0.0240   -0.0175   -0.0409   -0.0810    0.0286    0.2882    1.0341
   14 FE1   3d2+    0.0311   -0.0057   -0.1211    0.1594   -0.0859    0.5217   -0.5591   -0.6014   -0.0845    0.0065
   15 FE1   4d2+    0.0124   -0.0046   -0.0190    0.0428   -0.0254   -0.0582    0.0668    0.0618   -0.6232    0.1719
   16 S2    1s     -0.0007    0.0034   -0.0025   -0.0008   -0.0003    0.0002    0.0003   -0.0007   -0.0143    0.0011
   17 S2    2s     -0.0053    0.0249   -0.0183   -0.0061   -0.0025    0.0014    0.0022   -0.0059   -0.1094    0.0092
   18 S2    3s     -0.1688    0.3834   -0.1626   -0.0511   -0.0192    0.0006   -0.0008   -0.1079   -0.4462    0.0806
   19 S2    2px     0.0026   -0.0060    0.0048   -0.0037    0.0063   -0.0008    0.0001    0.0006    0.0045    0.0041
   20 S2    3px    -0.1053    0.1949   -0.2526    0.3935   -0.7365   -0.2030    0.1793   -0.0056   -0.0413    0.0929
   21 S2    2py    -0.0031    0.0150   -0.0073   -0.0035    0.0021   -0.0000    0.0005   -0.0015   -0.0159   -0.0096
   22 S2    3py     0.0965   -0.5407    0.3202    0.2145   -0.3438   -0.1780   -0.0884    0.0110   -0.0472   -0.2304
   23 S3    1s      0.0017    0.0015    0.0034    0.0010   -0.0004    0.0002    0.0001    0.0002    0.0085   -0.0037
   24 S3    2s      0.0135    0.0115    0.0258    0.0078   -0.0033    0.0018    0.0006    0.0017    0.0658   -0.0276
   25 S3    3s      0.1865    0.2298    0.2680    0.0643   -0.0567    0.0340    0.0271    0.0471    0.2901   -0.0885
   26 S3    2px     0.0093   -0.0018   -0.0072   -0.0046   -0.0019    0.0001    0.0007   -0.0002   -0.0062    0.0113
   27 S3    3px    -0.2341    0.1734    0.4086    0.5822    0.3152    0.0087    0.1047   -0.0506    0.0635    0.1588
   28 S3    2py    -0.0141   -0.0087   -0.0076    0.0000    0.0018   -0.0002   -0.0007   -0.0008   -0.0037    0.0040
   29 S3    3py     0.3139    0.3205    0.4903   -0.1641   -0.2444    0.0215   -0.0708   -0.0602   -0.0352    0.0128
   30 S3    2pz     0.0155    0.0016   -0.0033    0.0031    0.0005   -0.0003   -0.0010   -0.0005   -0.0227   -0.0062
   31 S3    3pz    -0.4079   -0.0004    0.3456   -0.5076   -0.3389   -0.0559   -0.1820   -0.1282   -0.3460   -0.1606
   32 C4    1s     -0.0054   -0.0022    0.0026    0.0016    0.0041   -0.0002   -0.0005   -0.0006    0.0030   -0.0020
   33 C4    2s     -0.1395   -0.0644    0.0002    0.0202    0.0765   -0.0199   -0.0106   -0.0161   -0.0175   -0.0329
   34 C4    2px    -0.1558    0.0287    0.0795    0.1488    0.0863   -0.0131    0.0065   -0.0078   -0.0283   -0.0319
   35 C4    2py     0.3963    0.1886    0.1366    0.0107   -0.0750    0.0327    0.0130    0.0071    0.0073    0.0499
   36 C4    2pz     0.3150    0.0756   -0.0427    0.1053   -0.0109    0.0263    0.0254    0.0220    0.0479    0.0296
   37 H5    1s      0.0797    0.0493    0.1115   -0.1477   -0.1010   -0.0044   -0.0325   -0.0218   -0.0938    0.0051
   38 H6    1s      0.2086   -0.0454   -0.1632   -0.0122   -0.0177    0.0145    0.0144    0.0291    0.0341   -0.0125
   39 H7    1s      0.0516    0.0892    0.1290    0.1853    0.0751    0.0004    0.0152   -0.0071   -0.0325   -0.0942
 
 
      Orbital           31
      Energy        0.0000
      Occ. No.      0.0031
 
    1 FE1   1s     -0.0002
    2 FE1   2s     -0.0011
    3 FE1   3s     -0.0053
    4 FE1   4s     -0.0273
    5 FE1   5s     -0.0080
    6 FE1   2pz    -0.0001
    7 FE1   3pz    -0.0016
    8 FE1   4pz    -0.0282
    9 FE1   5pz    -0.0101
   10 FE1   3d2-    0.0803
   11 FE1   4d2-    0.6382
   12 FE1   3d0     0.0058
   13 FE1   4d0     0.0406
   14 FE1   3d2+   -0.1155
   15 FE1   4d2+   -0.8781
   16 S2    1s     -0.0014
   17 S2    2s     -0.0109
   18 S2    3s     -0.0434
   19 S2    2px     0.0227
   20 S2    3px     0.4966
   21 S2    2py     0.0075
   22 S2    3py     0.2047
   23 S3    1s      0.0002
   24 S3    2s      0.0016
   25 S3    3s     -0.0090
   26 S3    2px     0.0065
   27 S3    3px     0.1293
   28 S3    2py    -0.0131
   29 S3    3py    -0.2237
   30 S3    2pz    -0.0021
   31 S3    3pz    -0.0788
   32 C4    1s     -0.0012
   33 C4    2s      0.0245
   34 C4    2px     0.0281
   35 C4    2py    -0.0346
   36 C4    2pz    -0.0461
   37 H5    1s      0.0513
   38 H6    1s     -0.0026
   39 H7    1s      0.0041
 
 
 
      Molecular orbitals for symmetry species 2: bg 
 
 
      Orbital            1         2         3         4         5         6         7         8         9        10
      Energy      -91.9317  -27.4722  -27.4721  -11.0930   -8.7086   -6.3400   -6.3376   -6.3355   -6.2849   -2.7114
      Occ. No.      2.0000    2.0000    2.0000    2.0000    2.0000    2.0000    2.0000    2.0000    2.0000    2.0000
 
    1 FE1   2px    -0.0000   -0.6326   -0.7745    0.0000   -0.0000    0.0000    0.0000   -0.0000   -0.0000    0.0001
    2 FE1   3px    -0.0000   -0.0000   -0.0000    0.0001   -0.0000   -0.0000    0.0000   -0.0000   -0.0000   -0.6818
    3 FE1   4px    -0.0000   -0.0000   -0.0000    0.0006   -0.0002   -0.0002    0.0004   -0.0003   -0.0001    0.0079
    4 FE1   5px    -0.0000   -0.0001   -0.0001    0.0002   -0.0000   -0.0000    0.0002   -0.0001   -0.0001   -0.0060
    5 FE1   2py    -0.0000    0.7745   -0.6326   -0.0000    0.0000    0.0000    0.0000    0.0000    0.0000   -0.0001
    6 FE1   3py    -0.0000    0.0000   -0.0000   -0.0000    0.0000    0.0000    0.0000    0.0000    0.0000    0.7304
    7 FE1   4py    -0.0000    0.0000   -0.0000   -0.0002    0.0002    0.0003    0.0001    0.0001    0.0003   -0.0085
    8 FE1   5py    -0.0000    0.0001   -0.0001   -0.0001    0.0001    0.0001    0.0001    0.0000    0.0001    0.0063
    9 FE1   3d1-    0.0000    0.0001    0.0000    0.0000   -0.0000   -0.0000   -0.0000    0.0000    0.0000    0.0075
   10 FE1   4d1-    0.0000   -0.0000    0.0000   -0.0000   -0.0001   -0.0000    0.0001    0.0000   -0.0000   -0.0013
   11 FE1   3d1+    0.0000   -0.0000    0.0001    0.0001   -0.0001   -0.0001    0.0000   -0.0000   -0.0000   -0.0019
   12 FE1   4d1+    0.0000    0.0000   -0.0000    0.0002   -0.0003   -0.0002    0.0001   -0.0000    0.0000   -0.0001
   13 S2    2pz    -0.0000    0.0000   -0.0000   -0.0000    0.0000    0.0000    0.0000    0.0000    1.0000    0.0006
   14 S2    3pz    -0.0000   -0.0000   -0.0000   -0.0001    0.0001    0.0001   -0.0000    0.0001    0.0073   -0.0071
   15 S3    1s      1.0000    0.0000    0.0000    0.0000    0.0000   -0.0000    0.0001   -0.0000   -0.0000   -0.0000
   16 S3    2s      0.0000    0.0000    0.0000    0.0001    0.9999   -0.0077    0.0116   -0.0005   -0.0000    0.0001
   17 S3    3s     -0.0004   -0.0000    0.0000    0.0004    0.0075    0.0009   -0.0014    0.0001   -0.0000   -0.0017
   18 S3    2px    -0.0000    0.0000   -0.0000    0.0000   -0.0040    0.4029    0.5835   -0.7050    0.0000   -0.0001
   19 S3    3px    -0.0000    0.0000    0.0000    0.0002   -0.0003    0.0029    0.0038   -0.0042    0.0000    0.0011
   20 S3    2py    -0.0001   -0.0000   -0.0000   -0.0000   -0.0133   -0.6074    0.7466    0.2709   -0.0000   -0.0001
   21 S3    3py     0.0000   -0.0000    0.0000   -0.0002   -0.0010   -0.0051    0.0052    0.0016   -0.0000    0.0013
   22 S3    2pz     0.0000   -0.0000   -0.0000    0.0000    0.0019    0.6845    0.3192    0.6554   -0.0000   -0.0001
   23 S3    3pz    -0.0000   -0.0000    0.0000    0.0004    0.0001    0.0052    0.0020    0.0038   -0.0000    0.0011
   24 C4    1s      0.0000    0.0000   -0.0000    1.0002    0.0001    0.0002   -0.0001   -0.0000    0.0000   -0.0001
   25 C4    2s     -0.0000   -0.0000   -0.0000    0.0011    0.0002    0.0002   -0.0002   -0.0000    0.0000   -0.0003
   26 C4    2px    -0.0000   -0.0000   -0.0000   -0.0001    0.0000   -0.0000    0.0000   -0.0001   -0.0000    0.0002
   27 C4    2py     0.0000    0.0000    0.0000    0.0001   -0.0001   -0.0001    0.0002    0.0000   -0.0000    0.0003
   28 C4    2pz     0.0000    0.0000    0.0000    0.0001   -0.0001   -0.0000    0.0000   -0.0001    0.0000    0.0000
   29 H5    1s      0.0000   -0.0000   -0.0000   -0.0008   -0.0001    0.0000   -0.0000   -0.0000   -0.0000   -0.0001
   30 H6    1s      0.0000   -0.0000   -0.0000   -0.0009   -0.0000    0.0001   -0.0000   -0.0000   -0.0000    0.0004
   31 H7    1s     -0.0000   -0.0000   -0.0000   -0.0007    0.0000    0.0000   -0.0000    0.0001   -0.0000   -0.0001
 
 
      Orbital           11        12        13        14        15        16        17        18        19        20
      Energy       -2.7113   -0.7929   -0.6071   -0.3845   -0.3685   -0.2519   -0.1653   -0.1549   -0.1081    0.0000
      Occ. No.      2.0000    2.0000    2.0000    2.0000    2.0000    2.0000    2.0000    2.0000    2.0000    0.9968
 
    1 FE1   2px    -0.0001    0.0008   -0.0010    0.0007   -0.0001    0.0009    0.0020    0.0015   -0.0003   -0.0007
    2 FE1   3px     0.7304    0.0202   -0.0261    0.0150   -0.0015    0.0182    0.0405    0.0292   -0.0061   -0.0152
    3 FE1   4px    -0.0087    0.0095    0.0696   -0.0107   -0.0105   -0.1174   -0.2133   -0.0616    0.0716    0.0587
    4 FE1   5px     0.0065    0.0092    0.0027    0.0036   -0.0031   -0.0054   -0.0057    0.0049    0.0069   -0.0011
    5 FE1   2py    -0.0001    0.0001   -0.0006   -0.0001    0.0001    0.0012   -0.0018    0.0018    0.0001   -0.0008
    6 FE1   3py     0.6818    0.0027   -0.0150   -0.0024    0.0018    0.0267   -0.0365    0.0358    0.0015   -0.0203
    7 FE1   4py    -0.0081   -0.0330    0.0231   -0.0107   -0.0039   -0.0878    0.2584   -0.1810   -0.0044    0.0915
    8 FE1   5py     0.0060   -0.0065   -0.0029   -0.0037    0.0003   -0.0002    0.0115   -0.0029   -0.0015   -0.0011
    9 FE1   3d1-    0.0002   -0.0105    0.0324   -0.0069   -0.0016   -0.0687   -0.2520    0.0372   -0.1162    0.0830
   10 FE1   4d1-    0.0002   -0.0050    0.0082   -0.0028   -0.0007   -0.0158   -0.0447    0.0131   -0.0240   -0.0050
   11 FE1   3d1+   -0.0056   -0.0224    0.0595   -0.0279   -0.0077   -0.0981   -0.0093   -0.2359   -0.0098   -0.9680
   12 FE1   4d1+    0.0014    0.0006    0.0169   -0.0037   -0.0020   -0.0232    0.0016   -0.0352   -0.0027    0.0954
   13 S2    2pz     0.0002   -0.0008   -0.0001    0.0004   -0.0004   -0.0017    0.0180   -0.0083    0.0001   -0.0002
   14 S2    3pz    -0.0024   -0.0071   -0.0022   -0.0178    0.0111    0.0406   -0.6760    0.3452   -0.0935   -0.1054
   15 S3    1s      0.0000    0.0025   -0.0010    0.0001    0.0001   -0.0021    0.0011    0.0032   -0.0004    0.0000
   16 S3    2s     -0.0002    0.0269   -0.0155    0.0006    0.0005   -0.0166    0.0079    0.0245   -0.0032    0.0002
   17 S3    3s      0.0051   -0.4376    0.7478    0.0226   -0.0125   -0.2614    0.0795    0.2691    0.0017    0.0489
   18 S3    2px     0.0003    0.0018    0.0026   -0.0035   -0.0053   -0.0080   -0.0014   -0.0050   -0.0033   -0.0014
   19 S3    3px    -0.0041    0.0149   -0.0494    0.0582    0.0889    0.2479    0.2200    0.4852    0.7427   -0.1893
   20 S3    2py     0.0002   -0.0118    0.0012   -0.0044    0.0004    0.0163   -0.0043   -0.0068    0.0011   -0.0016
   21 S3    3py    -0.0020    0.1005   -0.0191    0.0922   -0.0061   -0.3737    0.2168    0.5561   -0.2081   -0.1405
   22 S3    2pz     0.0003    0.0067    0.0025   -0.0055    0.0034   -0.0158   -0.0033   -0.0030    0.0040   -0.0005
   23 S3    3pz    -0.0044   -0.0315   -0.0328    0.1016   -0.0646    0.3809    0.2187    0.3289   -0.6086   -0.1478
   24 C4    1s      0.0000   -0.0395   -0.0171    0.0008    0.0003   -0.0050   -0.0032   -0.0002    0.0027    0.0001
   25 C4    2s      0.0001    0.5643    0.3317    0.0127    0.0139   -0.1274   -0.0409    0.0540    0.0534   -0.0144
   26 C4    2px     0.0002    0.0131   -0.0297    0.3068    0.5157   -0.0847   -0.0322   -0.0544   -0.0214   -0.0047
   27 C4    2py     0.0001   -0.0368    0.1902    0.2972   -0.1164    0.4532   -0.0513   -0.1596    0.0316    0.0119
   28 C4    2pz    -0.0002   -0.0304    0.1190   -0.3948    0.3034    0.3082    0.0836   -0.0171   -0.0804    0.0083
   29 H5    1s      0.0001    0.1218    0.1414    0.2574   -0.3666    0.1022   -0.0892   -0.0907    0.1683    0.0137
   30 H6    1s     -0.0003    0.1252    0.1462   -0.4477   -0.0589    0.1484    0.1103    0.1252   -0.0434   -0.0219
   31 H7    1s      0.0001    0.1237    0.1516    0.1758    0.4190    0.1069   -0.0470   -0.1111   -0.1364    0.0158
 
 
      Orbital           21        22        23
      Energy        0.0000    0.0000    0.0000
      Occ. No.      0.9969    0.0033    0.0030
 
    1 FE1   2px     0.0008   -0.0011   -0.0000
    2 FE1   3px     0.0196   -0.0216    0.0003
    3 FE1   4px    -0.0936   -0.1065   -0.1604
    4 FE1   5px     0.0008    0.0013   -0.0784
    5 FE1   2py    -0.0005    0.0025   -0.0003
    6 FE1   3py    -0.0139    0.0510   -0.0064
    7 FE1   4py     0.0701    0.2614   -0.1264
    8 FE1   5py    -0.0006   -0.0009   -0.0459
    9 FE1   3d1-    0.9583   -0.1755    0.1262
   10 FE1   4d1-   -0.0986   -1.0850    0.6570
   11 FE1   3d1+    0.0835    0.1021    0.2162
   12 FE1   4d1+   -0.0134    0.6313    1.1481
   13 S2    2pz    -0.0003    0.0348   -0.0043
   14 S2    3pz    -0.2141    0.2934   -0.0504
   15 S3    1s     -0.0006   -0.0003   -0.0139
   16 S3    2s     -0.0047   -0.0021   -0.1071
   17 S3    3s     -0.0769    0.0239   -0.4315
   18 S3    2px     0.0016   -0.0032    0.0270
   19 S3    3px     0.2156   -0.0928    0.3313
   20 S3    2py     0.0004    0.0090    0.0106
   21 S3    3py    -0.0160    0.1505    0.0784
   22 S3    2pz    -0.0004    0.0031    0.0159
   23 S3    3pz     0.0095    0.0805    0.1219
   24 C4    1s     -0.0013    0.0050    0.0089
   25 C4    2s     -0.0345    0.0872    0.0642
   26 C4    2px    -0.0162    0.0604    0.0291
   27 C4    2py     0.0319   -0.0324   -0.0288
   28 C4    2pz     0.0414   -0.0942   -0.0343
   29 H5    1s      0.0039    0.0372    0.0260
   30 H6    1s      0.0361   -0.0149    0.0404
   31 H7    1s     -0.0336    0.0975   -0.0438
 
 
 
      Molecular orbitals for symmetry species 3: au 
 
 
      Orbital            1         2         3         4         5         6         7         8         9        10
      Energy     -263.6095  -91.9317  -32.4059  -27.4718  -11.0930   -8.7086   -6.3400   -6.3376   -6.3355   -6.2849
      Occ. No.      2.0000    2.0000    2.0000    2.0000    2.0000    2.0000    2.0000    2.0000    2.0000    2.0000
 
    1 FE1   1s      1.0000   -0.0000   -0.0000   -0.0000   -0.0000    0.0000    0.0000    0.0000   -0.0000   -0.0000
    2 FE1   2s      0.0000   -0.0000    1.0000    0.0000   -0.0001    0.0000    0.0000    0.0000   -0.0000   -0.0000
    3 FE1   3s     -0.0000   -0.0000    0.0011   -0.0000   -0.0003    0.0002    0.0001    0.0001   -0.0000   -0.0001
    4 FE1   4s      0.0000   -0.0001   -0.0001   -0.0003   -0.0017    0.0008    0.0002    0.0005   -0.0002   -0.0004
    5 FE1   5s     -0.0000   -0.0001    0.0001   -0.0001   -0.0010    0.0004    0.0001    0.0003   -0.0000   -0.0002
    6 FE1   2pz     0.0000   -0.0000   -0.0000    1.0000   -0.0000   -0.0000   -0.0000    0.0000    0.0000    0.0000
    7 FE1   3pz    -0.0000    0.0000    0.0000    0.0001   -0.0000   -0.0001   -0.0001    0.0000    0.0000    0.0000
    8 FE1   4pz    -0.0000    0.0000    0.0000    0.0002   -0.0003   -0.0009   -0.0006    0.0003    0.0003    0.0001
    9 FE1   5pz    -0.0000    0.0000   -0.0000    0.0002   -0.0001   -0.0002   -0.0002    0.0001    0.0001    0.0000
   10 FE1   3d2-   -0.0000    0.0000    0.0000   -0.0001   -0.0000   -0.0000    0.0000   -0.0000    0.0000   -0.0000
   11 FE1   4d2-   -0.0000    0.0000    0.0000    0.0000    0.0000   -0.0001    0.0001    0.0001   -0.0000    0.0001
   12 FE1   3d0     0.0000   -0.0000    0.0000   -0.0000   -0.0000    0.0000   -0.0000    0.0000    0.0000    0.0000
   13 FE1   4d0     0.0000   -0.0000   -0.0000   -0.0000   -0.0001   -0.0000   -0.0001    0.0000    0.0001    0.0001
   14 FE1   3d2+   -0.0000    0.0000    0.0000   -0.0001   -0.0000   -0.0001   -0.0001    0.0000   -0.0000   -0.0000
   15 FE1   4d2+   -0.0000    0.0000    0.0000    0.0000   -0.0001   -0.0002   -0.0002    0.0001   -0.0001    0.0000
   16 S2    2pz    -0.0000    0.0000    0.0000    0.0000    0.0000   -0.0000   -0.0000    0.0000   -0.0000    1.0000
   17 S2    3pz    -0.0000    0.0000    0.0000   -0.0000    0.0001   -0.0002   -0.0001   -0.0000    0.0000    0.0073
   18 S3    1s      0.0000    1.0000   -0.0000   -0.0000   -0.0000    0.0000   -0.0000    0.0001   -0.0000    0.0000
   19 S3    2s      0.0000    0.0000   -0.0000   -0.0000   -0.0000    0.9999   -0.0077    0.0116   -0.0005    0.0000
   20 S3    3s      0.0000   -0.0004   -0.0000   -0.0000   -0.0002    0.0075    0.0010   -0.0015    0.0000    0.0001
   21 S3    2px     0.0000   -0.0000   -0.0000    0.0000   -0.0000   -0.0040    0.4029    0.5835   -0.7051   -0.0000
   22 S3    3px     0.0000    0.0000   -0.0000    0.0000   -0.0002   -0.0004    0.0029    0.0039   -0.0041    0.0000
   23 S3    2py     0.0000   -0.0001   -0.0000    0.0000    0.0000   -0.0133   -0.6076    0.7466    0.2706    0.0000
   24 S3    3py     0.0000    0.0000   -0.0000    0.0000    0.0004   -0.0011   -0.0051    0.0052    0.0016    0.0000
   25 S3    2pz     0.0000    0.0000   -0.0000    0.0000   -0.0000    0.0019    0.6844    0.3194    0.6554   -0.0000
   26 S3    3pz     0.0000   -0.0000   -0.0000   -0.0000   -0.0003    0.0001    0.0053    0.0019    0.0038   -0.0000
   27 C4    1s      0.0000    0.0000   -0.0000    0.0000    1.0002   -0.0001   -0.0002    0.0001   -0.0000    0.0000
   28 C4    2s      0.0000    0.0000   -0.0000   -0.0000    0.0011   -0.0003   -0.0002    0.0002   -0.0000    0.0000
   29 C4    2px     0.0000    0.0000   -0.0000   -0.0000   -0.0000   -0.0001    0.0000   -0.0001    0.0001    0.0000
   30 C4    2py    -0.0000   -0.0000    0.0000    0.0000    0.0001    0.0002    0.0001   -0.0001   -0.0000   -0.0000
   31 C4    2pz    -0.0000   -0.0000    0.0000    0.0000    0.0000    0.0001    0.0000   -0.0000    0.0001   -0.0000
   32 H5    1s      0.0000    0.0000   -0.0000    0.0000   -0.0006   -0.0001   -0.0001   -0.0001    0.0000    0.0000
   33 H6    1s     -0.0000   -0.0000   -0.0000   -0.0000   -0.0008    0.0000   -0.0001   -0.0000   -0.0000    0.0000
   34 H7    1s      0.0000   -0.0000   -0.0000   -0.0000   -0.0006    0.0000   -0.0001   -0.0001    0.0000    0.0001
 
 
      Orbital           11        12        13        14        15        16        17        18        19        20
      Energy       -4.2101   -2.7130   -0.8031   -0.6097   -0.3914   -0.3806   -0.2629   -0.2012   -0.1646   -0.1188
      Occ. No.      2.0000    2.0000    2.0000    2.0000    2.0000    2.0000    2.0000    2.0000    2.0000    2.0000
 
    1 FE1   1s      0.0000    0.0000   -0.0010    0.0006   -0.0008    0.0005   -0.0015    0.0017    0.0018    0.0001
    2 FE1   2s     -0.0012    0.0001   -0.0074    0.0048   -0.0060    0.0034   -0.0110    0.0124    0.0133    0.0006
    3 FE1   3s      0.9997    0.0002   -0.0411    0.0294   -0.0309    0.0178   -0.0562    0.0614    0.0649    0.0026
    4 FE1   4s     -0.0028    0.0029   -0.0974   -0.1244   -0.0245    0.0045    0.2167   -0.2818    0.2563    0.0205
    5 FE1   5s      0.0062    0.0012   -0.0892   -0.0123   -0.0462    0.0256   -0.1073    0.1483    0.1102   -0.0079
    6 FE1   2pz    -0.0000   -0.0001   -0.0006    0.0009   -0.0006    0.0001   -0.0004    0.0004    0.0014    0.0002
    7 FE1   3pz     0.0001    0.9991   -0.0176    0.0233   -0.0137    0.0013   -0.0087    0.0074    0.0283    0.0035
    8 FE1   4pz     0.0002   -0.0134    0.0083   -0.0597    0.0114   -0.0098    0.0726    0.1115   -0.3087   -0.0969
    9 FE1   5pz    -0.0001    0.0080   -0.0053   -0.0024   -0.0030   -0.0017    0.0052    0.0096   -0.0182   -0.0107
   10 FE1   3d2-    0.0001   -0.0050    0.0127   -0.0323    0.0028    0.0002    0.0398    0.1256   -0.1781    0.0294
   11 FE1   4d2-   -0.0001    0.0008    0.0075   -0.0090    0.0002   -0.0017    0.0086    0.0301   -0.0305    0.0040
   12 FE1   3d0    -0.0000    0.0000    0.0017   -0.0067    0.0119    0.0091   -0.0222    0.0354   -0.0851   -0.1012
   13 FE1   4d0    -0.0001    0.0008   -0.0049   -0.0044    0.0020   -0.0006    0.0002    0.0014   -0.0133   -0.0264
   14 FE1   3d2+    0.0001   -0.0040    0.0088   -0.0258    0.0022   -0.0093    0.0042    0.0834   -0.1747    0.1162
   15 FE1   4d2+    0.0000    0.0008   -0.0024   -0.0084    0.0014   -0.0007    0.0053    0.0200   -0.0325    0.0283
   16 S2    2pz    -0.0002    0.0004   -0.0000    0.0010   -0.0008    0.0011   -0.0065    0.0145   -0.0111   -0.0007
   17 S2    3pz     0.0019   -0.0047    0.0119   -0.0030    0.0252   -0.0311    0.1860   -0.5423    0.4629   -0.0387
   18 S3    1s      0.0000    0.0000   -0.0018    0.0014    0.0001   -0.0001    0.0016    0.0028    0.0018    0.0006
   19 S3    2s     -0.0000   -0.0001   -0.0219    0.0178    0.0013   -0.0008    0.0122    0.0214    0.0133    0.0046
   20 S3    3s      0.0013    0.0043    0.4695   -0.7087   -0.0912    0.0101    0.1570    0.3318    0.1717    0.0193
   21 S3    2px     0.0001    0.0003   -0.0008   -0.0039    0.0089    0.0021    0.0093   -0.0021   -0.0075   -0.0044
   22 S3    3px    -0.0016   -0.0040   -0.0183    0.0532   -0.1732   -0.0437   -0.2338    0.1722    0.4672    0.6262
   23 S3    2py     0.0000    0.0001    0.0121   -0.0012    0.0014   -0.0034   -0.0136   -0.0106   -0.0064    0.0014
   24 S3    3py    -0.0010   -0.0022   -0.0905    0.0190   -0.0345    0.0647    0.2970    0.4073    0.4172   -0.3016
   25 S3    2pz     0.0001    0.0002   -0.0066   -0.0031    0.0024   -0.0069    0.0156    0.0016   -0.0029    0.0032
   26 S3    3pz    -0.0015   -0.0027    0.0251    0.0414   -0.0369    0.1264   -0.3945   -0.0055    0.3053   -0.6432
   27 C4    1s      0.0000   -0.0001   -0.0379   -0.0176    0.0005   -0.0002   -0.0053   -0.0020    0.0010    0.0032
   28 C4    2s      0.0000   -0.0003    0.5521    0.3660    0.0039   -0.0121   -0.1399   -0.0640   -0.0116    0.0541
   29 C4    2px     0.0001   -0.0000    0.0197   -0.0449    0.5147    0.2029   -0.1557    0.0164    0.1005    0.1638
   30 C4    2py     0.0001    0.0003   -0.0383    0.1805    0.2109   -0.2731    0.3661    0.2765    0.0754   -0.0319
   31 C4    2pz    -0.0001   -0.0001   -0.0347    0.1160   -0.1007    0.4716    0.3310    0.0611   -0.0164    0.0907
   32 H5    1s     -0.0007   -0.0003    0.1286    0.1564    0.0118   -0.4412    0.0569    0.1089    0.0475   -0.1845
   33 H6    1s     -0.0003    0.0004    0.1234    0.1640   -0.3574    0.2241    0.2257   -0.0702   -0.1493   -0.0054
   34 H7    1s     -0.0007   -0.0003    0.1323    0.1449    0.3796    0.2018    0.0493    0.1051    0.1238    0.1888
 
 
      Orbital           21        22        23        24        25        26
      Energy        0.0000    0.0000    0.0000    0.0000    0.0000    0.0000
      Occ. No.      0.9969    0.9968    0.9966    0.0031    0.0028    0.0034
 
    1 FE1   1s      0.0001   -0.0003    0.0006    0.0045    0.0058   -0.0007
    2 FE1   2s      0.0007   -0.0021    0.0040    0.0324    0.0420   -0.0047
    3 FE1   3s      0.0033   -0.0105    0.0208    0.1573    0.2052   -0.0229
    4 FE1   4s      0.0292   -0.0945    0.1541    0.6259    0.9807   -0.1313
    5 FE1   5s      0.0105   -0.0160    0.0143    0.0733    0.2047   -0.0627
    6 FE1   2pz     0.0002   -0.0006   -0.0001   -0.0053   -0.0043    0.0004
    7 FE1   3pz     0.0050   -0.0162   -0.0018   -0.1043   -0.0808    0.0086
    8 FE1   4pz    -0.0103    0.1080   -0.1269   -0.5328   -0.5398    0.0282
    9 FE1   5pz     0.0017    0.0005   -0.0093   -0.0646   -0.1251    0.0017
   10 FE1   3d2-   -0.4445   -0.8535    0.1558   -0.1152    0.1003    0.0867
   11 FE1   4d2-    0.0345    0.0939   -0.0273   -0.7137    0.5344    0.7504
   12 FE1   3d0    -0.1266    0.2557    0.9599    0.1482    0.2353   -0.0110
   13 FE1   4d0     0.0126   -0.0165   -0.0859    0.7512    1.1173   -0.0701
   14 FE1   3d2+    0.8762   -0.3703    0.2103   -0.1125    0.0792   -0.0910
   15 FE1   4d2+   -0.0856    0.0535   -0.0277   -0.7063    0.4260   -0.7911
   16 S2    2pz     0.0003   -0.0002   -0.0016   -0.0270    0.0205    0.0011
   17 S2    3pz     0.0591   -0.2265    0.1829   -0.2868    0.4330    0.0098
   18 S3    1s     -0.0001    0.0010   -0.0002    0.0087   -0.0081   -0.0007
   19 S3    2s     -0.0006    0.0079   -0.0016    0.0674   -0.0618   -0.0057
   20 S3    3s     -0.0043    0.1026   -0.0302    0.2986   -0.2721   -0.0459
   21 S3    2px    -0.0003   -0.0001    0.0004   -0.0031    0.0137    0.0068
   22 S3    3px    -0.0579   -0.0224    0.1406    0.1070    0.2030    0.1142
   23 S3    2py     0.0006   -0.0011    0.0003   -0.0049    0.0056   -0.0123
   24 S3    3py     0.0863   -0.0616    0.0293   -0.0603    0.0497   -0.2107
   25 S3    2pz     0.0007   -0.0014    0.0002   -0.0255    0.0026    0.0015
   26 S3    3pz     0.1155   -0.2079   -0.0016   -0.3855    0.0135   -0.0254
   27 C4    1s     -0.0008   -0.0005    0.0003    0.0025   -0.0033   -0.0000
   28 C4    2s     -0.0197   -0.0255   -0.0009   -0.0148   -0.0257    0.0438
   29 C4    2px    -0.0138   -0.0144    0.0095   -0.0315   -0.0120    0.0337
   30 C4    2py     0.0186    0.0426    0.0043    0.0213    0.0333   -0.0431
   31 C4    2pz     0.0100    0.0393    0.0107    0.0382    0.0113   -0.0639
   32 H5    1s      0.0210   -0.0220   -0.0076   -0.0588    0.0262    0.0650
   33 H6    1s     -0.0005    0.0376   -0.0106    0.0305   -0.0385   -0.0073
   34 H7    1s     -0.0105    0.0038    0.0200   -0.0473   -0.0918    0.0180
 
 
 
      Molecular orbitals for symmetry species 4: bu 
 
 
      Orbital            1         2         3         4         5         6         7         8         9        10
      Energy      -91.9317  -91.8729  -27.4722  -27.4721  -11.0930   -8.7086   -8.6547   -6.3400   -6.3376   -6.3355
      Occ. No.      2.0000    2.0000    2.0000    2.0000    2.0000    2.0000    2.0000    2.0000    2.0000    2.0000
 
    1 FE1   2px    -0.0000   -0.0000   -0.6338   -0.7735    0.0000   -0.0000   -0.0000    0.0000    0.0000   -0.0000
    2 FE1   3px    -0.0000   -0.0000   -0.0000   -0.0000    0.0001   -0.0000   -0.0000   -0.0000    0.0000   -0.0000
    3 FE1   4px    -0.0000   -0.0000    0.0000    0.0000    0.0005   -0.0002   -0.0001   -0.0002    0.0003   -0.0002
    4 FE1   5px    -0.0000   -0.0000   -0.0001   -0.0001    0.0002   -0.0000    0.0000   -0.0000    0.0001   -0.0001
    5 FE1   2py    -0.0000    0.0000    0.7735   -0.6338   -0.0000    0.0000    0.0000    0.0000    0.0000    0.0000
    6 FE1   3py    -0.0000    0.0000    0.0000   -0.0000   -0.0000    0.0000    0.0001    0.0000    0.0000    0.0000
    7 FE1   4py    -0.0000    0.0000   -0.0000    0.0000   -0.0001    0.0001    0.0003    0.0002    0.0001    0.0000
    8 FE1   5py    -0.0000    0.0000    0.0001   -0.0001   -0.0001    0.0001   -0.0001    0.0001    0.0000    0.0000
    9 FE1   3d1-    0.0000    0.0000    0.0001    0.0000   -0.0000   -0.0000   -0.0002   -0.0000   -0.0000    0.0000
   10 FE1   4d1-    0.0000    0.0000   -0.0000   -0.0000   -0.0000   -0.0001   -0.0005    0.0000    0.0001    0.0000
   11 FE1   3d1+    0.0000   -0.0000   -0.0000    0.0001    0.0001   -0.0001    0.0001   -0.0001    0.0000   -0.0000
   12 FE1   4d1+    0.0000   -0.0000   -0.0000   -0.0000    0.0003   -0.0003    0.0002   -0.0002    0.0002   -0.0000
   13 S2    1s     -0.0000    1.0000    0.0000   -0.0000   -0.0000    0.0000    0.0000    0.0000   -0.0000    0.0000
   14 S2    2s     -0.0000    0.0000    0.0000   -0.0000   -0.0000    0.0000    1.0000    0.0000   -0.0000    0.0000
   15 S2    3s     -0.0000   -0.0004    0.0000   -0.0000   -0.0001    0.0001    0.0079    0.0001   -0.0000    0.0000
   16 S2    2px     0.0000   -0.0000   -0.0000    0.0000   -0.0000   -0.0000   -0.0049   -0.0000   -0.0000    0.0000
   17 S2    3px     0.0000    0.0000    0.0000    0.0000   -0.0000    0.0000   -0.0004    0.0000   -0.0001    0.0000
   18 S2    2py     0.0000    0.0001    0.0000    0.0000   -0.0000   -0.0000    0.0106    0.0000   -0.0000    0.0000
   19 S2    3py     0.0000   -0.0000   -0.0001    0.0000   -0.0000   -0.0000    0.0009   -0.0000   -0.0000    0.0000
   20 S3    1s      1.0000    0.0000    0.0000    0.0000    0.0000    0.0000    0.0000   -0.0000    0.0001   -0.0000
   21 S3    2s      0.0000   -0.0000    0.0000    0.0000    0.0001    0.9999    0.0000   -0.0077    0.0116   -0.0005
   22 S3    3s     -0.0004   -0.0000   -0.0000    0.0000    0.0004    0.0075    0.0000    0.0009   -0.0014    0.0001
   23 S3    2px    -0.0000    0.0000    0.0000   -0.0000    0.0000   -0.0040   -0.0000    0.4029    0.5835   -0.7050
   24 S3    3px    -0.0000    0.0000    0.0000    0.0000    0.0002   -0.0003   -0.0000    0.0029    0.0038   -0.0042
   25 S3    2py    -0.0001   -0.0000   -0.0000   -0.0000   -0.0000   -0.0133    0.0000   -0.6074    0.7466    0.2709
   26 S3    3py     0.0000   -0.0000   -0.0000    0.0000   -0.0002   -0.0010   -0.0000   -0.0051    0.0052    0.0016
   27 S3    2pz     0.0000   -0.0000   -0.0000   -0.0000    0.0000    0.0019    0.0000    0.6845    0.3191    0.6554
   28 S3    3pz    -0.0000   -0.0000   -0.0000    0.0000    0.0004    0.0001    0.0000    0.0052    0.0020    0.0038
   29 C4    1s      0.0000   -0.0000    0.0000   -0.0000    1.0002    0.0001    0.0000    0.0002   -0.0001   -0.0000
   30 C4    2s     -0.0000   -0.0000    0.0000   -0.0000    0.0011    0.0002    0.0001    0.0002   -0.0002   -0.0000
   31 C4    2px    -0.0000   -0.0000   -0.0000   -0.0000   -0.0001    0.0000    0.0000   -0.0000    0.0000   -0.0001
   32 C4    2py     0.0000   -0.0000    0.0000    0.0000    0.0001   -0.0001    0.0000   -0.0001    0.0002    0.0000
   33 C4    2pz     0.0000    0.0000    0.0000    0.0000    0.0001   -0.0001   -0.0000   -0.0000    0.0000   -0.0001
   34 H5    1s      0.0000    0.0000   -0.0000   -0.0000   -0.0008   -0.0001   -0.0000    0.0000   -0.0000   -0.0000
   35 H6    1s      0.0000   -0.0000   -0.0000   -0.0000   -0.0009   -0.0000    0.0000    0.0001   -0.0000   -0.0000
   36 H7    1s     -0.0000   -0.0000   -0.0000    0.0000   -0.0007    0.0000    0.0000    0.0000   -0.0000    0.0001
 
 
      Orbital           11        12        13        14        15        16        17        18        19        20
      Energy       -6.2849   -6.2824   -2.7116   -2.7115   -0.7930   -0.6230   -0.6071   -0.3844   -0.3685   -0.2525
      Occ. No.      2.0000    2.0000    2.0000    2.0000    2.0000    2.0000    2.0000    2.0000    2.0000    2.0000
 
    1 FE1   2px    -0.0000   -0.0000    0.0001   -0.0001    0.0007   -0.0009   -0.0011    0.0006   -0.0000    0.0011
    2 FE1   3px    -0.0000    0.0000   -0.6996    0.7134    0.0197   -0.0221   -0.0283    0.0139   -0.0012    0.0242
    3 FE1   4px    -0.0002    0.0001    0.0077   -0.0084    0.0061    0.0419    0.0635   -0.0050   -0.0121   -0.1096
    4 FE1   5px    -0.0001    0.0000   -0.0063    0.0063    0.0085   -0.0012    0.0004    0.0042   -0.0036   -0.0007
    5 FE1   2py     0.0000   -0.0000   -0.0001   -0.0001    0.0001    0.0021   -0.0004    0.0001    0.0000    0.0010
    6 FE1   3py     0.0001    0.0000    0.7131    0.6995    0.0031    0.0540   -0.0116    0.0006   -0.0000    0.0215
    7 FE1   4py     0.0005    0.0000   -0.0077   -0.0080   -0.0285   -0.1015    0.0129   -0.0165    0.0029   -0.0541
    8 FE1   5py     0.0001    0.0000    0.0065    0.0063   -0.0058    0.0032   -0.0037   -0.0032    0.0005    0.0022
    9 FE1   3d1-   -0.0001   -0.0000    0.0075    0.0003   -0.0113    0.1151    0.0414    0.0029   -0.0084   -0.1011
   10 FE1   4d1-   -0.0003   -0.0000   -0.0012   -0.0002   -0.0057    0.0272    0.0107   -0.0008   -0.0026   -0.0233
   11 FE1   3d1+    0.0000   -0.0000   -0.0017   -0.0056   -0.0221   -0.0552    0.0580   -0.0331   -0.0075   -0.0838
   12 FE1   4d1+    0.0001   -0.0000    0.0002    0.0007    0.0021   -0.0131    0.0177   -0.0047   -0.0021   -0.0226
   13 S2    1s     -0.0001    0.0000   -0.0000   -0.0000   -0.0004   -0.0023   -0.0003   -0.0002    0.0001    0.0001
   14 S2    2s     -0.0115    0.0000    0.0004    0.0001   -0.0028   -0.0282   -0.0029   -0.0015    0.0007    0.0008
   15 S2    3s      0.0018    0.0000   -0.0076   -0.0028   -0.0148    0.8803    0.0528    0.0097   -0.0098    0.0001
   16 S2    2px    -0.4173    0.9087   -0.0002   -0.0002    0.0002    0.0026   -0.0003    0.0006   -0.0004    0.0013
   17 S2    3px    -0.0031    0.0058    0.0026    0.0019    0.0026   -0.0519   -0.0108   -0.0044    0.0119    0.0154
   18 S2    2py     0.9087    0.4173    0.0006    0.0002   -0.0003   -0.0057   -0.0009   -0.0004    0.0002    0.0018
   19 S2    3py     0.0067    0.0027   -0.0068   -0.0020   -0.0020    0.1178    0.0035    0.0113    0.0018   -0.0547
   20 S3    1s     -0.0000   -0.0000   -0.0000    0.0000    0.0025    0.0001   -0.0010    0.0001    0.0001   -0.0023
   21 S3    2s     -0.0000   -0.0000    0.0000   -0.0001    0.0269    0.0014   -0.0148    0.0003    0.0005   -0.0180
   22 S3    3s     -0.0000   -0.0000   -0.0019    0.0053   -0.4379   -0.0477    0.7489    0.0217   -0.0129   -0.2657
   23 S3    2px     0.0000    0.0000   -0.0001    0.0003    0.0018   -0.0005    0.0025   -0.0035   -0.0053   -0.0077
   24 S3    3px     0.0000    0.0000    0.0012   -0.0042    0.0149   -0.0015   -0.0506    0.0587    0.0894    0.2481
   25 S3    2py     0.0000    0.0000   -0.0001    0.0001   -0.0118    0.0006    0.0012   -0.0043    0.0003    0.0163
   26 S3    3py    -0.0001    0.0000    0.0013   -0.0021    0.1006    0.0068   -0.0193    0.0929   -0.0065   -0.3713
   27 S3    2pz    -0.0000   -0.0000   -0.0001    0.0003    0.0067   -0.0001    0.0024   -0.0055    0.0034   -0.0155
   28 S3    3pz     0.0000    0.0000    0.0012   -0.0043   -0.0312    0.0038   -0.0344    0.1028   -0.0657    0.3854
   29 C4    1s      0.0000    0.0000   -0.0001    0.0000   -0.0396    0.0009   -0.0172    0.0008    0.0002   -0.0050
   30 C4    2s      0.0000    0.0000   -0.0002    0.0001    0.5640   -0.0132    0.3314    0.0132    0.0134   -0.1280
   31 C4    2px    -0.0000   -0.0000    0.0002    0.0002    0.0129    0.0024   -0.0295    0.3097    0.5136   -0.0839
   32 C4    2py    -0.0000    0.0000    0.0003    0.0001   -0.0367   -0.0142    0.1894    0.2973   -0.1187    0.4512
   33 C4    2pz     0.0000   -0.0000   -0.0000   -0.0002   -0.0303   -0.0051    0.1190   -0.3932    0.3059    0.3116
   34 H5    1s     -0.0001   -0.0000    0.0000    0.0002    0.1220   -0.0078    0.1412    0.2560   -0.3687    0.0973
   35 H6    1s     -0.0000    0.0000    0.0003   -0.0003    0.1252   -0.0055    0.1460   -0.4479   -0.0560    0.1506
   36 H7    1s     -0.0000   -0.0000   -0.0001    0.0001    0.1236   -0.0046    0.1516    0.1788    0.4173    0.1076
 
 
      Orbital           21        22        23        24        25        26        27        28
      Energy       -0.1666   -0.1573   -0.1397   -0.0909    0.0000    0.0000    0.0000    0.0000
      Occ. No.      2.0000    2.0000    2.0000    2.0000    0.9967    0.9968    0.0031    0.0033
 
    1 FE1   2px     0.0011    0.0002    0.0026   -0.0003   -0.0004   -0.0010   -0.0008   -0.0022
    2 FE1   3px     0.0212    0.0054    0.0519   -0.0061   -0.0086   -0.0251   -0.0181   -0.0476
    3 FE1   4px    -0.0049   -0.0572   -0.2006    0.0348    0.0387    0.0328    0.0126   -0.2694
    4 FE1   5px     0.0111   -0.0056   -0.0012    0.0014   -0.0009   -0.0110    0.0342   -0.0304
    5 FE1   2py     0.0003    0.0024   -0.0004   -0.0010    0.0016    0.0000    0.0007   -0.0013
    6 FE1   3py     0.0049    0.0456   -0.0070   -0.0204    0.0373    0.0006    0.0173   -0.0271
    7 FE1   4py     0.0054   -0.0915   -0.0103    0.0947   -0.0924   -0.0154   -0.0944   -0.0826
    8 FE1   5py     0.0039    0.0122   -0.0050    0.0023    0.0110   -0.0015   -0.0647    0.0109
    9 FE1   3d1-   -0.1552    0.2695   -0.0781   -0.0166   -0.6952   -0.6274   -0.1665   -0.0380
   10 FE1   4d1-   -0.0247    0.0384    0.0015    0.0022    0.0856    0.0826   -1.1139   -0.2673
   11 FE1   3d1+   -0.2829   -0.1466    0.0861   -0.0500    0.6304   -0.6915    0.0423   -0.1420
   12 FE1   4d1+   -0.0500   -0.0179    0.0203   -0.0167   -0.0752    0.0902    0.2865   -1.0874
   13 S2    1s      0.0002   -0.0023    0.0016    0.0011    0.0002    0.0001    0.0193   -0.0030
   14 S2    2s      0.0017   -0.0167    0.0122    0.0086    0.0017    0.0009    0.1482   -0.0227
   15 S2    3s      0.0255   -0.2420    0.1485    0.0804    0.0962    0.0361    0.5924   -0.0848
   16 S2    2px    -0.0052    0.0068    0.0054   -0.0049   -0.0010   -0.0007   -0.0183   -0.0111
   17 S2    3px     0.4444   -0.4410   -0.3070    0.4792   -0.0781   -0.3107   -0.2455   -0.3237
   18 S2    2py    -0.0014   -0.0079    0.0079   -0.0000    0.0025    0.0006    0.0332   -0.0119
   19 S2    3py     0.1290    0.6573   -0.5666    0.0508    0.4104    0.0054    0.3644   -0.2216
   20 S3    1s      0.0015    0.0012    0.0029   -0.0011    0.0000    0.0013    0.0043    0.0164
   21 S3    2s      0.0111    0.0088    0.0222   -0.0084    0.0000    0.0103    0.0331    0.1256
   22 S3    3s      0.1621    0.0752    0.2116   -0.0880   -0.0070    0.1340    0.1727    0.5159
   23 S3    2px    -0.0047   -0.0007   -0.0008    0.0036    0.0002   -0.0025   -0.0118   -0.0261
   24 S3    3px     0.5891   -0.0462    0.0005   -0.6978    0.0082   -0.2857   -0.2086   -0.3042
   25 S3    2py    -0.0055   -0.0018   -0.0058    0.0002    0.0009   -0.0019    0.0074   -0.0134
   26 S3    3py     0.4274    0.2134    0.4001    0.1096    0.1072   -0.1015    0.1568   -0.1291
   27 S3    2pz    -0.0009   -0.0035   -0.0042   -0.0015    0.0010   -0.0014   -0.0023   -0.0212
   28 S3    3pz     0.2201    0.3108    0.3558    0.5105    0.1072   -0.1591    0.0377   -0.2101
   29 C4    1s     -0.0006   -0.0019   -0.0016   -0.0023   -0.0001    0.0005    0.0009   -0.0109
   30 C4    2s      0.0329   -0.0231    0.0096   -0.0563    0.0186    0.0123    0.0605   -0.0923
   31 C4    2px    -0.0677   -0.0164   -0.0058    0.0155    0.0127    0.0139    0.0628   -0.0406
   32 C4    2py    -0.0997   -0.0502   -0.1364    0.0134   -0.0275   -0.0273   -0.0292    0.0320
   33 C4    2pz    -0.0021    0.0639    0.0217    0.0683   -0.0221   -0.0224   -0.0902    0.0677
   34 H5    1s     -0.0489   -0.0905   -0.1343   -0.1255   -0.0125    0.0070    0.0435   -0.0545
   35 H6    1s      0.1226    0.0796    0.0833    0.0238    0.0000   -0.0448   -0.0214   -0.0472
   36 H7    1s     -0.1263    0.0081   -0.0162    0.1298    0.0076    0.0322    0.1220    0.0128
--
 
      Von Neumann Entropy (Root  1) =  5.15584
 

      Mulliken population Analysis for root number:  1
      -----------------------------------------------
 
 
++    Molecular charges:
      ------------------
 
      Mulliken charges per centre and basis function type
      ---------------------------------------------------
 
             FE1     S2      S3      C4      H5      H6      H7    
      1s     2.0000  2.0000  2.0000  2.0004  0.8663  0.8881  0.8630
      2s     2.0000  2.0004  2.0003  1.2833  0.0000  0.0000  0.0000
      2px    2.0000  2.0001  2.0001  1.1109  0.0000  0.0000  0.0000
      2pz    2.0000  2.0002  2.0001  1.0869  0.0000  0.0000  0.0000
      2py    2.0000  2.0001  2.0002  1.0610  0.0000  0.0000  0.0000
      3s     1.9985  1.8385  1.8291  0.0000  0.0000  0.0000  0.0000
      3px    1.9981  1.7332  1.7408  0.0000  0.0000  0.0000  0.0000
      3pz    1.9976  1.4647  1.5202  0.0000  0.0000  0.0000  0.0000
      3py    1.9980  1.6146  1.2834  0.0000  0.0000  0.0000  0.0000
      4s     0.4095  0.0000  0.0000  0.0000  0.0000  0.0000  0.0000
      3d2+   1.0619  0.0000  0.0000  0.0000  0.0000  0.0000  0.0000
      3d1+   1.1220  0.0000  0.0000  0.0000  0.0000  0.0000  0.0000
      3d0    1.0349  0.0000  0.0000  0.0000  0.0000  0.0000  0.0000
      3d1-   1.1294  0.0000  0.0000  0.0000  0.0000  0.0000  0.0000
      3d2-   1.0544  0.0000  0.0000  0.0000  0.0000  0.0000  0.0000
      4px    0.3291  0.0000  0.0000  0.0000  0.0000  0.0000  0.0000
      4pz    0.3424  0.0000  0.0000  0.0000  0.0000  0.0000  0.0000
      4py    0.3365  0.0000  0.0000  0.0000  0.0000  0.0000  0.0000
      5s     0.1637  0.0000  0.0000  0.0000  0.0000  0.0000  0.0000
      4d2+   0.0644  0.0000  0.0000  0.0000  0.0000  0.0000  0.0000
      4d1+   0.0676  0.0000  0.0000  0.0000  0.0000  0.0000  0.0000
      4d0    0.0510  0.0000  0.0000  0.0000  0.0000  0.0000  0.0000
      4d1-   0.0700  0.0000  0.0000  0.0000  0.0000  0.0000  0.0000
      4d2-   0.0589  0.0000  0.0000  0.0000  0.0000  0.0000  0.0000
      5px   -0.0001  0.0000  0.0000  0.0000  0.0000  0.0000  0.0000
      5pz   -0.0086  0.0000  0.0000  0.0000  0.0000  0.0000  0.0000
      5py    0.0010  0.0000  0.0000  0.0000  0.0000  0.0000  0.0000
      Total 25.2801 16.6518 16.3743  6.5424  0.8663  0.8881  0.8630
 
      N-E    0.7199 -0.6518 -0.3743 -0.5424  0.1337  0.1119  0.1370
 
      Total electronic charge=  186.000000
 
      Total            charge=   -2.000000
--
 
 

      Expectation values of various properties for root number:  1
      -----------------------------------------------------------
 
 
++    Molecular properties:
      ---------------------
 
      Charge (e):
                      =   -2.0000
      Dipole Moment (Debye):
      Origin of the operator (Ang)=    0.0000    0.0000    0.0000
                   X=  0.0000E+00               Y=  0.0000E+00               Z=  0.0000E+00           Total=  0.0000E+00
      Center of Charge (Ang)
                     X=    0.00000000               Y=    0.00000000               Z=    0.00000000
      Quadrupole Moment (Debye*Ang):
      Origin of the operator (Ang)=    0.0000    0.0000    0.0000
                  XX= -1.9102E+02              XY= -9.7574E+00              XZ=  0.0000E+00              YY= -1.8512E+02
                  YZ=  0.0000E+00              ZZ= -2.1904E+02
      In traceless form (Debye*Ang)
                  XX=  1.1061E+01              XY= -1.4636E+01              XZ=  0.0000E+00              YY=  1.9911E+01
                  YZ=  0.0000E+00              ZZ= -3.0972E+01
--
 

      Mulliken spin population Analysis for root number:  1
      ---------------------------------------------------
 
 
++    Molecular charges:
      ------------------
 
      Mulliken spin population per centre and basis function type
      ---------------------------------------------------
 
             FE1     S2      S3      C4      H5      H6      H7    
      1s     0.0000  0.0000  0.0000  0.0000  0.0000  0.0000  0.0000
      2s     0.0000  0.0000  0.0000  0.0000  0.0000  0.0000  0.0000
      2px    0.0000  0.0000  0.0000  0.0000  0.0000  0.0000  0.0000
      2pz    0.0000  0.0000  0.0000  0.0000  0.0000  0.0000  0.0000
      2py    0.0000  0.0000  0.0000  0.0000  0.0000  0.0000  0.0000
      3s     0.0000  0.0000  0.0000  0.0000  0.0000  0.0000  0.0000
      3px    0.0000  0.0000  0.0000  0.0000  0.0000  0.0000  0.0000
      3pz    0.0000  0.0000  0.0000  0.0000  0.0000  0.0000  0.0000
      3py    0.0000  0.0000  0.0000  0.0000  0.0000  0.0000  0.0000
      4s     0.0000  0.0000  0.0000  0.0000  0.0000  0.0000  0.0000
      3d2+   0.0000  0.0000  0.0000  0.0000  0.0000  0.0000  0.0000
      3d1+   0.0000  0.0000  0.0000  0.0000  0.0000  0.0000  0.0000
      3d0    0.0000  0.0000  0.0000  0.0000  0.0000  0.0000  0.0000
      3d1-   0.0000  0.0000  0.0000  0.0000  0.0000  0.0000  0.0000
      3d2-   0.0000  0.0000  0.0000  0.0000  0.0000  0.0000  0.0000
      4px    0.0000  0.0000  0.0000  0.0000  0.0000  0.0000  0.0000
      4pz    0.0000  0.0000  0.0000  0.0000  0.0000  0.0000  0.0000
      4py    0.0000  0.0000  0.0000  0.0000  0.0000  0.0000  0.0000
      5s     0.0000  0.0000  0.0000  0.0000  0.0000  0.0000  0.0000
      4d2+   0.0000  0.0000  0.0000  0.0000  0.0000  0.0000  0.0000
      4d1+   0.0000  0.0000  0.0000  0.0000  0.0000  0.0000  0.0000
      4d0    0.0000  0.0000  0.0000  0.0000  0.0000  0.0000  0.0000
      4d1-   0.0000  0.0000  0.0000  0.0000  0.0000  0.0000  0.0000
      4d2-   0.0000  0.0000  0.0000  0.0000  0.0000  0.0000  0.0000
      5px    0.0000  0.0000  0.0000  0.0000  0.0000  0.0000  0.0000
      5pz    0.0000  0.0000  0.0000  0.0000  0.0000  0.0000  0.0000
      5py    0.0000  0.0000  0.0000  0.0000  0.0000  0.0000  0.0000
      Total  0.0000  0.0000  0.0000  0.0000  0.0000  0.0000  0.0000
 
      Total electronic spin=    0.000000
--
 
 

      LoProp population Analysis for root number:  1
      -----------------------------------------------
 
 
++    LoProp Analysis:
      ----------------
 
 
 
++    Static properties:
      ------------------
 
 
      LoProp Charges per center
 

                   FE1      S2       S3       C4       H5       H6       H7    
      Nuclear     26.0000  16.0000  16.0000   6.0000   1.0000   1.0000   1.0000
      Electronic -24.3749 -17.2244 -16.5971  -6.3756  -0.9019  -0.9272  -0.8985
 
      Total        1.6251  -1.2244  -0.5971  -0.3756   0.0981   0.0728   0.1015
--
 
 
      Natural Bond Order Analysis for root number:  1
 
++    Natural Bond Order analysis
      ---------------------------
      Based on LoProp computed density
      -------------------------------------------------------------------------------------
      Atom A:Gen.  Atom B:Gen.  Bond Order | Atom A:Gen.  Atom B:Gen.  Bond Order
        S3    :E     C4    :xy      1.000  |   C4    :z     H5    :z       1.000
        S3    :xy    C4    :E       1.000  |   C4    :z     H6    :z       1.000
        S3    :xyz   C4    :z       1.000  |   FE1   :E     S2    :E       2.807
        S3    :z     C4    :xyz     1.000  |   FE1   :E     S2    :xy      2.807
        C4    :E     H5    :E       1.000  |   FE1   :z     S2    :E       2.807
        C4    :E     H6    :E       1.000  |   FE1   :z     S2    :xy      2.807
        C4    :xy    H5    :xy      1.000  |   FE1   :E     S3    :E       1.843
        C4    :xy    H6    :xy      1.000  |   FE1   :E     S3    :xy      1.843
        C4    :xyz   H5    :xyz     1.000  |   FE1   :z     S3    :xyz     1.843
        C4    :xyz   H6    :xyz     1.000  |   FE1   :z     S3    :z       0.950
        FE1   :E     FE1   :z       1.784  |
      -------------------------------------------------------------------------------------
      NBO located    104.000 core electrons.
      NBO located     19.390 lone pair electrons.
      NBO located     62.979 electrons involved in   21 bonds.
      NBO analysis, and just that ONLY, did not converge to a
      proper answer, sorry. Calculation will continue as normal.
--
 
--
 
 
  Input file to MOLDEN was generated!
 
 
  Input file to MOLDEN was generated!
 
      Average orbitals are written to the RASORB file
      Natural orbitals for root   1 are written to the RASORB.1 file
      Spin density orbitals for root   1 are written to the SPDORB.1 file
 
--- Stop Module:  rasscf at Wed Mar 28 18:39:59 2018 /rc=0 ---
--- Module rasscf spent 2 minutes and 55 seconds 
--- Stop Module:  auto at Wed Mar 28 18:39:59 2018 /rc=0 ---
--- Module auto spent 2 minutes and 55 seconds 
