   License is going to expire in 42 days  on Wednesday May 9th, 2018
   This copy of MOLCAS is licensed to Kristine Pierloot
                                                                       
                             ^^^                                       
                             ^^^          ++++  +++++  ++++++ +   ++   
                 ^^^        ^^^^^        ++  ++ ++  ++ ++     ++  ++   
                ^^^^^       ^^ ^^        ++  ++ ++  ++ ++     +++ ++   
                ^^ ^^      ^^   ^^       ++  ++ +++++  ++++   ++++++   
                ^^  ^^     ^^   ^^       ++  ++ ++     ++     ++ +++   
               ^^   ^  ^^^^  ^  ^^       ++  ++ ++     ++     ++  ++   
               ^^  ^   ^^^   ^^ ^^        ++++  ++     ++++++ ++   +   
               ^  ^^^   ^^  ^^^  ^^                                    
            ^^^   ^^^   ^   ^^^    ^^                                  
        ^^^^^^^  ^^^^^     ^^^^^   ^^^^^^                              
     ^^^^^^^^^   ^^^^^^^^^^^^^^^   ^^^^^^^^^                           
    ^^^^^^^^^^   ^^           ^^   ^^^    ^^^                          
    ^^^^^^^^^^       ^^**^^^        ^     ^^^                          
    ^^^^^^^^^^    ^^^^**^^^^^^^     ^  ^  ^^^                          
    ^^^^^^^^^^   **^^***********    ^  ^  ^^^                          
    ^^^^^^^^^   ^^***********^^^^   ^  ^  ^^^    ^^^^    ^^    ^^^^    
    ^^^^^^^^^   ^^^***********^^^   ^  ^  ^^^   ^^  ^^  ^^^^  ^^   ^   
    ^^^^^^^^^   ^^^^***********^^      ^  ^^^   ^      ^^  ^^ ^^       
    ^^^^^^^^     ***********^^**       ^  ^^^   ^      ^^  ^^  ^^^^    
    ^^^^^^        ^^^^^^^**^^^^        ^  ^^^   ^      ^^^^^^     ^^   
    ^^^     ^^^      ^^^**^^     ^     ^   ^^   ^^  ^^ ^^  ^^ ^   ^^   
          ^^^^^^^^^            ^^^^   ^^^        ^^^^  ^    ^  ^^^^    
     ^^^^^^^^^^^^^^^^^^^^^^^^^^^^^^^^^^^^^^^                           
        ^^^^^^^^^^^^^^^^^^^^^^^^^^^^^^^^^                              
            ^^^^^^^^^^^^^^^^^^^^^^^^^                                  
               ^^^^^^^^^^^^^^^^^^^        version 18.0                  
                   ^^^^^^^^^^^                                         
                       ^^^                tag o180313-0800                      
                                              $Px$                     
                                                                       
 OpenMolcas is free software; you can redistribute it and/or modify it 
 under the terms of the GNU Lesser General Public License version 2.1. 
 OpenMolcas is distributed in the hope that it will be useful, but it  
 is provided "as is" and without any express or implied warranties.    
 For more details see the full text of the license in the file         
 LICENSE or in <http://www.gnu.org/licenses/>.                         
                                                                       
                 Copyright (C) The OpenMolcas Authors                  
           For the author list and the recommended citation,           
                   consult the file CONTRIBUTORS.md                    

configuration info
------------------
C Compiler ID: Intel
C flags: -std=gnu99
Fortran Compiler ID: Intel
Fortran flags: -fpp -i8 -r8 -heap-arrays
Definitions: _MOLCAS_;_HAVE_EXTRA_;_I8_;_LINUX_;_MOLCAS_MPP_;SCALAPACK;_MKL_
Parallel: ON (GA=OFF)


   -------------------------------------------------------------------
  |                                                                   
  |   Project         = fes
  |   Submitted from  = /home/tccm1/polyene/fes
  |   Scratch area    = /temp0/tccm1/fes.work
  |   Save outputs to = WORKDIR
  |   Molcas          = /home/tccm1/source/molcas-extra/build
  |                                                                   
  |   Scratch area is NOT empty
  |                                                                   
  |       MOLCAS_TRAP = ON                  
  |      MOLCAS_PRINT = 2                   
  |     MOLCAS_NPROCS = 1                   
  |     MOLCAS_SOURCE = /home/tccm1/source/molcas-extra/build
  |                                                                   
   -------------------------------------------------------------------
--- Start Module: auto at Wed Mar 28 18:36:44 2018 

++ ---------   Input file   ---------

 >> COPY $CurrDir/startorb $WorkDir/$Project.RasOrb
  &RASSCF &END                                                                   
    Symmetry                                                                        
      3                                                                           
    Spin                                                                            
      11                                                                           
    nActEl
      10    0    2    
    Inactive          
      25  19  20  24
    Ras2
      3   2   3   2
    Ras3
      3   2   3   2
    lumorb                                                                          
    tight
      0.00000001 0.00001
    thrs
      0.000001 0.1 0.0001
    ITERations 
      12 100

-- ----------------------------------

*** 
--- Start Module: rasscf at Wed Mar 28 18:36:44 2018 
 
()()()()()()()()()()()()()()()()()()()()()()()()()()()()()()()()()()()()()()()()()()()()()()()()()()

                                              &RASSCF

                       only a single process is used, running in SERIAL mode
                       available to each process: 5.0 GB of memory, 1 thread
()()()()()()()()()()()()()()()()()()()()()()()()()()()()()()()()()()()()()()()()()()()()()()()()()()
 
 
      Header of the ONEINT file:
      --------------------------
      
      Integrals generated by seward 4.2.0  , Wed Mar 28 18:34:29 2018
 
 
      OrdInt status: non-squared
 
 
      Cartesian coordinates in Angstrom:
      -----------------------------------------------------
      No.  Label        X            Y            Z        
      -----------------------------------------------------
       1   FE1        0.00000000   0.00000000   1.44712000
       2   S2         0.72885700  -1.61793300   0.00000000
       3   S3         1.63499000   0.80290600   2.89045900
       4   C4        -1.91503200   0.73499400   3.84936900
       5   H5        -2.33901000   1.51350700   3.19876600
       6   H6        -2.61538900   0.53796400   4.67755100
       7   H7        -0.95850900   1.10610100   4.24788900
       8   FE1        0.00000000   0.00000000  -1.44712000
       9   S2        -0.72885700   1.61793300   0.00000000
      10   S3        -1.63499000  -0.80290600   2.89045900
      11   S3        -1.63499000  -0.80290600  -2.89045900
      12   S3         1.63499000   0.80290600  -2.89045900
      13   C4         1.91503200  -0.73499400   3.84936900
      14   C4         1.91503200  -0.73499400  -3.84936900
      15   C4        -1.91503200   0.73499400  -3.84936900
      16   H5         2.33901000  -1.51350700   3.19876600
      17   H5         2.33901000  -1.51350700  -3.19876600
      18   H5        -2.33901000   1.51350700  -3.19876600
      19   H6         2.61538900  -0.53796400   4.67755100
      20   H6         2.61538900  -0.53796400  -4.67755100
      21   H6        -2.61538900   0.53796400  -4.67755100
      22   H7         0.95850900  -1.10610100   4.24788900
      23   H7         0.95850900  -1.10610100  -4.24788900
      24   H7        -0.95850900   1.10610100  -4.24788900
      -----------------------------------------------------
      Nuclear repulsion energy = 2319.88713954
 
++    Wave function specifications:
      -----------------------------
 
      Number of closed shell electrons         176
      Number of electrons in active shells      10
      Max number of holes in RAS1 space          0
      Max nr of electrons in RAS3 space          2
      Number of inactive orbitals               88
      Number of active orbitals                 20
      Number of secondary orbitals              32
      Spin quantum number                      5.0
      State symmetry                             3
--
 
++    Orbital specifications:
      -----------------------
 
      Symmetry species                           1   2   3   4
                                                ag  bg  au  bu
      Frozen orbitals                            0   0   0   0
      Inactive orbitals                         25  19  20  24
      Active orbitals                            6   4   6   4
      RAS1 orbitals                              0   0   0   0
      RAS2 orbitals                              3   2   3   2
      RAS3 orbitals                              3   2   3   2
      Secondary orbitals                         8   8   8   8
      Deleted orbitals                           0   0   0   0
      Number of basis functions                 39  31  34  36
--
 
++    CI expansion specifications:
      ----------------------------
 
      Number of CSFs                           548
      Number of determinants                   548
      Number of root(s) required                 1
      Root chosen for geometry opt.              1
      CI root used                               1
         
      highest root included in the CI            1
      max. size of the explicit Hamiltonian    200
--
 
++    Optimization specifications:
      ----------------------------
 
      RASSCF algorithm: LK Cholesky
      Maximum number of macro iterations        12
      Maximum number of SX iterations          100
      Threshold for RASSCF energy            0.100E-05
      Threshold for max MO rotation          0.100E+00
      Threshold for max BLB element          0.100E-03
      Level shift parameter                  0.500E+00
      Make Quasi-Newton update
--
 
      The MO-coefficients are taken from the file:
      INPORB                                                                                                                          
      Title: RASSCF natural orbitals for root number  1 E=    -5092.809550991438           
 
      Total molecular charge   -2.00
 
      ************************************************************************************************************************
      *                                                                                                                      *
      *                                            Wave function control section                                             *
      *                                                                                                                      *
      ************************************************************************************************************************
 
 
                                         RASSCF iterations: Energy and convergence statistics
                                         ----------------------------------------------------
 
      Iter CI   SX   CI       RASSCF       Energy    max ROT     max BLB   max BLB  Level Ln srch  Step   QN   Walltime
          iter iter root      energy       change     param      element    value   shift minimum  type update hh:mm:ss
 Nr of preliminary CI iterations:   6
      Total energies have been shifted. Add                -5000.00 au
        1   1    8    1   -92.80897571    0.00E+00   0.26E-02   21  26 3 -0.25E-02*  0.51   0.00    SX    NO    0:00:02
        2   4    8    1   -92.80904952   -0.74E-04* -0.13E-02   13  36 4 -0.28E-02*  0.51   0.00    SX    NO    0:00:01
        3   4    8    1   -92.80910116   -0.52E-04*  0.12E-02   21  26 3 -0.22E-02*  0.51   0.00    SX    NO    0:00:01
        4   5    8    1   -92.80915238   -0.51E-04*  0.11E-02   21  26 3 -0.21E-02*  0.51   0.00    SX    NO    0:00:01
        5   5    8    1   -92.80919517   -0.43E-04*  0.17E-01   21  26 3 -0.20E-02*  0.51   2.50    QN   YES    0:00:01
        6   6    8    1   -92.80953864   -0.34E-03*  0.25E-01   13  36 4 -0.26E-01*  0.50   1.06    QN   YES    0:00:01
        7   6    9    1   -92.80890616    0.63E-03*  0.13E-01   13  36 4 -0.19E-01*  0.49   0.15    LS   YES    0:00:01
        8   5    9    1   -92.80942603   -0.52E-03*  0.94E-02   13  36 4  0.25E-01*  0.49   1.74    LS   YES    0:00:01
        9   5    8    1   -92.80954126   -0.12E-03*  0.30E-02   13  36 4  0.14E-01*  0.50   2.50    QN   YES    0:00:01
       10   5    7    1   -92.80952418    0.17E-04*  0.15E-02   18  28 3  0.64E-03*  0.50   0.28    LS   YES    0:00:01
       11   5    7    1   -92.80954068   -0.17E-04*  0.70E-03   12  34 3  0.40E-02*  0.50   1.56    SX   YES    0:00:01
       12   4    7    1   -92.80954283   -0.21E-05*  0.36E-03   12  34 3 -0.22E-02*  0.50   0.49    LS   YES    0:00:01
      No convergence after 12 iterations
       13   3    7    1   -92.80954465   -0.18E-05*  0.36E-03   18  28 3  0.37E-03*  0.50   0.49    LS   YES    0:00:01
 
      ************************************************************************************************************************
                                                      Wave function printout:
                       occupation of active orbitals, and spin coupling of open shells (u,d: Spin up or down)
      ************************************************************************************************************************
 
      Note: transformation to natural orbitals
      has been made, which may change the order of the CSFs.
 
      printout of CI-coefficients larger than  0.05 for root  1
      energy=   -5092.809545
      conf/sym  111 22 333 44 111 22 333 44     Coeff  Weight
             1  uuu uu uuu uu 000 00 000 00   0.98984 0.97978
 
      Natural orbitals and occupation numbers for root  1
      sym 1:   0.996898   0.996940   0.997139   0.003041   0.003530   0.002887
      sym 2:   0.997013   0.997098   0.003157   0.002884
      sym 3:   0.997040   0.996998   0.996800   0.002929   0.002627   0.003159
      sym 4:   0.996872   0.996982   0.002884   0.003121
 
      ************************************************************************************************************************
      *                                                                                                                      *
      *                                                    Final results                                                     *
      *                                                                                                                      *
      ************************************************************************************************************************
 
 
++    Wave function specifications:
      -----------------------------
 
      Number of closed shell electrons         176
      Number of electrons in active shells      10
      Max number of holes in RAS1 space          0
      Max nr of electrons in RAS3 space          2
      Number of inactive orbitals               88
      Number of active orbitals                 20
      Number of secondary orbitals              32
      Spin quantum number                      5.0
      State symmetry                             3
--
 
++    Orbital specifications:
      -----------------------
 
      Symmetry species                           1   2   3   4
                                                ag  bg  au  bu
      Frozen orbitals                            0   0   0   0
      Inactive orbitals                         25  19  20  24
      Active orbitals                            6   4   6   4
      RAS1 orbitals                              0   0   0   0
      RAS2 orbitals                              3   2   3   2
      RAS3 orbitals                              3   2   3   2
      Secondary orbitals                         8   8   8   8
      Deleted orbitals                           0   0   0   0
      Number of basis functions                 39  31  34  36
--
 
++    CI expansion specifications:
      ----------------------------
 
      Number of CSFs                           548
      Number of determinants                   548
      Number of root(s) required                 1
      CI root used                               1
      highest root included in the CI            1
      Root passed to geometry opt.               1
--
 
++    Final optimization conditions:
      ------------------------------
 
      Average CI energy                           -5092.80954464
      RASSCF energy for state  1                  -5092.80954464
      Super-CI energy                                -0.00000469
      RASSCF energy change                            0.00000000
      Max change in MO coefficients               0.355E-03
      Max non-diagonal density matrix element     0.355E-03
      Maximum BLB matrix element                  0.366E-03
      (orbital pair  18,  28 in symmetry   3)
      Norm of electronic gradient            0.137E-02
--
 
 
      Final state energy(ies):
      ------------------------
 
::    RASSCF root number  1 Total energy:  -5092.80954464
 
++    Molecular orbitals:
      -------------------
 
      Pseudonatural active orbitals and approximate occupation numbers
 
 
 
 
      Molecular orbitals for symmetry species 1: ag 
 
 
      Orbital            1         2         3         4         5         6         7         8         9        10
      Energy     -263.6084  -91.9317  -91.8728  -32.4048  -27.4707  -11.0929   -8.7086   -8.6546   -6.3400   -6.3375
      Occ. No.      2.0000    2.0000    2.0000    2.0000    2.0000    2.0000    2.0000    2.0000    2.0000    2.0000
 
    1 FE1   1s      1.0000   -0.0000   -0.0000   -0.0000    0.0000   -0.0000    0.0000    0.0000    0.0000    0.0000
    2 FE1   2s      0.0000   -0.0000   -0.0000    1.0000    0.0000   -0.0000    0.0000    0.0000    0.0000    0.0000
    3 FE1   3s     -0.0000   -0.0000   -0.0000    0.0011    0.0000   -0.0001   -0.0000    0.0000   -0.0000    0.0000
    4 FE1   4s      0.0000   -0.0000   -0.0000   -0.0001    0.0000   -0.0007   -0.0001   -0.0001   -0.0002    0.0003
    5 FE1   5s     -0.0000   -0.0000   -0.0000    0.0001    0.0000   -0.0004    0.0002    0.0002    0.0000    0.0001
    6 FE1   2pz     0.0000   -0.0000    0.0000   -0.0000    1.0000   -0.0000   -0.0000    0.0000    0.0000    0.0000
    7 FE1   3pz    -0.0000   -0.0000    0.0000    0.0000    0.0000   -0.0001   -0.0000    0.0001   -0.0000    0.0000
    8 FE1   4pz    -0.0000   -0.0000   -0.0000   -0.0000    0.0000   -0.0007   -0.0003    0.0005   -0.0003    0.0004
    9 FE1   5pz     0.0000   -0.0000    0.0000   -0.0000    0.0002   -0.0003   -0.0001    0.0001   -0.0001    0.0001
   10 FE1   3d2-    0.0000    0.0000   -0.0000   -0.0000   -0.0001   -0.0000   -0.0000    0.0001    0.0000    0.0000
   11 FE1   4d2-    0.0000    0.0000   -0.0000   -0.0000    0.0000    0.0000   -0.0001    0.0002    0.0001    0.0001
   12 FE1   3d0    -0.0000    0.0000    0.0000   -0.0000    0.0000   -0.0000   -0.0000   -0.0000   -0.0001    0.0000
   13 FE1   4d0    -0.0000    0.0000    0.0000    0.0000    0.0000   -0.0001   -0.0001   -0.0001   -0.0001    0.0001
   14 FE1   3d2+    0.0000    0.0000   -0.0000   -0.0000   -0.0001   -0.0000   -0.0001    0.0001   -0.0001    0.0000
   15 FE1   4d2+    0.0000    0.0000   -0.0000   -0.0000    0.0000   -0.0001   -0.0002    0.0002   -0.0002    0.0001
   16 S2    1s      0.0000   -0.0000    1.0000   -0.0000    0.0000   -0.0000   -0.0000    0.0000   -0.0000    0.0000
   17 S2    2s      0.0000    0.0000    0.0000    0.0000    0.0000   -0.0000   -0.0001    1.0000   -0.0000    0.0000
   18 S2    3s     -0.0000    0.0000   -0.0004    0.0000    0.0000   -0.0000   -0.0002    0.0078   -0.0001    0.0001
   19 S2    2px     0.0000   -0.0000   -0.0000   -0.0000   -0.0000    0.0000    0.0000   -0.0049   -0.0000   -0.0000
   20 S2    3px     0.0000    0.0000    0.0000   -0.0000   -0.0000    0.0001    0.0000   -0.0005    0.0000   -0.0000
   21 S2    2py    -0.0000   -0.0000    0.0001    0.0000    0.0000   -0.0000   -0.0000    0.0106   -0.0000    0.0000
   22 S2    3py    -0.0000   -0.0000   -0.0000    0.0000   -0.0000   -0.0002   -0.0000    0.0010   -0.0000    0.0001
   23 S3    1s      0.0000    1.0000    0.0000   -0.0000   -0.0000   -0.0000    0.0000   -0.0000   -0.0000    0.0001
   24 S3    2s      0.0000    0.0000    0.0000    0.0000   -0.0000   -0.0001    0.9999    0.0000   -0.0077    0.0116
   25 S3    3s     -0.0000   -0.0004    0.0000    0.0000   -0.0000   -0.0002    0.0075   -0.0003    0.0010   -0.0014
   26 S3    2px     0.0000   -0.0000   -0.0000   -0.0000    0.0000   -0.0000   -0.0040    0.0000    0.4028    0.5836
   27 S3    3px     0.0000   -0.0000    0.0000   -0.0000    0.0000   -0.0003   -0.0004    0.0001    0.0029    0.0039
   28 S3    2py     0.0000   -0.0001   -0.0000   -0.0000    0.0000    0.0000   -0.0133    0.0000   -0.6078    0.7465
   29 S3    3py     0.0000    0.0000    0.0000   -0.0000   -0.0000    0.0003   -0.0010    0.0000   -0.0051    0.0052
   30 S3    2pz     0.0000    0.0000   -0.0000   -0.0000    0.0000   -0.0000    0.0019    0.0000    0.6843    0.3196
   31 S3    3pz     0.0000   -0.0000   -0.0000   -0.0000   -0.0000   -0.0004    0.0002    0.0000    0.0053    0.0019
   32 C4    1s      0.0000    0.0000    0.0000   -0.0000    0.0000    1.0002   -0.0001   -0.0000   -0.0002    0.0001
   33 C4    2s      0.0000    0.0000    0.0000   -0.0000   -0.0000    0.0011   -0.0003   -0.0000   -0.0002    0.0002
   34 C4    2px     0.0000    0.0000   -0.0000   -0.0000   -0.0000   -0.0000   -0.0001    0.0000    0.0000   -0.0000
   35 C4    2py    -0.0000   -0.0000   -0.0000    0.0000    0.0000    0.0001    0.0001    0.0000    0.0001   -0.0002
   36 C4    2pz    -0.0000   -0.0000   -0.0000    0.0000    0.0000    0.0001    0.0001    0.0000    0.0000   -0.0000
   37 H5    1s      0.0000    0.0000    0.0000   -0.0000   -0.0000   -0.0007   -0.0000   -0.0000   -0.0001   -0.0000
   38 H6    1s      0.0000   -0.0000    0.0000   -0.0000   -0.0000   -0.0009    0.0000   -0.0000   -0.0001   -0.0000
   39 H7    1s      0.0000   -0.0000    0.0000   -0.0000   -0.0000   -0.0007    0.0001   -0.0001   -0.0000   -0.0000
 
 
      Orbital           11        12        13        14        15        16        17        18        19        20
      Energy       -6.3355   -6.2848   -6.2823   -4.2094   -2.7136   -0.8022   -0.6516   -0.6064   -0.3909   -0.3801
      Occ. No.      2.0000    2.0000    2.0000    2.0000    2.0000    2.0000    2.0000    2.0000    2.0000    2.0000
 
    1 FE1   1s      0.0000   -0.0000   -0.0000   -0.0000    0.0000   -0.0006   -0.0019    0.0002   -0.0005    0.0002
    2 FE1   2s      0.0000   -0.0000   -0.0000   -0.0013    0.0001   -0.0045   -0.0137    0.0017   -0.0039    0.0014
    3 FE1   3s      0.0000   -0.0001    0.0000    0.9991    0.0007   -0.0279   -0.0802    0.0112   -0.0204    0.0079
    4 FE1   4s     -0.0000   -0.0005   -0.0000   -0.0051   -0.0003   -0.0063    0.1399   -0.0639    0.0022    0.0023
    5 FE1   5s     -0.0000    0.0000   -0.0000    0.0043   -0.0001   -0.0426   -0.0425   -0.0076   -0.0195    0.0162
    6 FE1   2pz     0.0000    0.0000    0.0000   -0.0000   -0.0001   -0.0007    0.0020    0.0014   -0.0007    0.0003
    7 FE1   3pz     0.0000    0.0001   -0.0000   -0.0001    0.9986   -0.0184    0.0496    0.0360   -0.0154    0.0058
    8 FE1   4pz     0.0002    0.0005   -0.0000   -0.0005   -0.0096   -0.0205   -0.0647   -0.0917    0.0060   -0.0154
    9 FE1   5pz     0.0001    0.0001   -0.0000   -0.0002    0.0085   -0.0115    0.0041   -0.0045   -0.0049   -0.0011
   10 FE1   3d2-    0.0000    0.0000   -0.0000   -0.0000   -0.0049    0.0108   -0.0408   -0.0460    0.0072   -0.0064
   11 FE1   4d2-   -0.0000    0.0002   -0.0000   -0.0001    0.0008    0.0065   -0.0145   -0.0133    0.0012   -0.0036
   12 FE1   3d0     0.0000   -0.0000   -0.0000   -0.0000   -0.0004    0.0023    0.0268   -0.0010    0.0149    0.0081
   13 FE1   4d0     0.0001    0.0000    0.0000    0.0005   -0.0008   -0.0060    0.0094   -0.0028    0.0014   -0.0002
   14 FE1   3d2+   -0.0000    0.0000    0.0000    0.0000   -0.0039    0.0073   -0.0373   -0.0378    0.0060   -0.0181
   15 FE1   4d2+   -0.0001    0.0001    0.0001   -0.0000    0.0008   -0.0028   -0.0123   -0.0120    0.0024   -0.0027
   16 S2    1s      0.0000   -0.0001    0.0000    0.0000    0.0000   -0.0000   -0.0025   -0.0006    0.0000   -0.0002
   17 S2    2s      0.0000   -0.0115    0.0000    0.0000    0.0005   -0.0009   -0.0293   -0.0074    0.0002   -0.0017
   18 S2    3s      0.0001    0.0017    0.0000    0.0023   -0.0057    0.0369    0.7975    0.2293   -0.0331    0.0265
   19 S2    2px    -0.0000   -0.4173    0.9087    0.0001   -0.0003    0.0006    0.0037    0.0009    0.0002    0.0006
   20 S2    3px     0.0000   -0.0031    0.0059   -0.0010    0.0022    0.0000   -0.0504   -0.0081   -0.0022   -0.0138
   21 S2    2py     0.0000    0.9087    0.4173   -0.0002    0.0006   -0.0013   -0.0082   -0.0023   -0.0005   -0.0002
   22 S2    3py     0.0000    0.0067    0.0027    0.0022   -0.0052   -0.0024    0.1126    0.0197    0.0054    0.0007
   23 S3    1s     -0.0000   -0.0000    0.0000    0.0000    0.0000   -0.0021   -0.0001    0.0013   -0.0001   -0.0001
   24 S3    2s     -0.0005   -0.0000    0.0000    0.0001   -0.0002   -0.0242   -0.0019    0.0169    0.0001   -0.0005
   25 S3    3s      0.0000   -0.0001    0.0000    0.0016    0.0041    0.4626    0.1354   -0.6990   -0.0909    0.0096
   26 S3    2px    -0.7051    0.0000   -0.0000    0.0001    0.0003   -0.0010    0.0017   -0.0037    0.0088    0.0018
   27 S3    3px    -0.0041    0.0001   -0.0000   -0.0017   -0.0034   -0.0204   -0.0242    0.0457   -0.1730   -0.0387
   28 S3    2py     0.2706   -0.0000   -0.0000    0.0000    0.0002    0.0119   -0.0004   -0.0014    0.0012   -0.0036
   29 S3    3py     0.0016    0.0000    0.0000   -0.0009   -0.0020   -0.0945    0.0024    0.0176   -0.0334    0.0685
   30 S3    2pz     0.6554   -0.0000    0.0000    0.0001    0.0002   -0.0067    0.0024   -0.0026    0.0018   -0.0067
   31 S3    3pz     0.0039   -0.0000   -0.0000   -0.0012   -0.0026    0.0222   -0.0187    0.0364   -0.0286    0.1263
   32 C4    1s     -0.0000   -0.0000   -0.0000    0.0000   -0.0001   -0.0380    0.0065   -0.0168    0.0003   -0.0002
   33 C4    2s     -0.0000   -0.0000   -0.0000    0.0001   -0.0003    0.5475   -0.1232    0.3475    0.0033   -0.0126
   34 C4    2px     0.0001   -0.0000   -0.0000    0.0001   -0.0000    0.0188    0.0094   -0.0442    0.5254    0.1740
   35 C4    2py    -0.0000   -0.0000   -0.0000    0.0001    0.0002   -0.0379   -0.0309    0.1802    0.1956   -0.2809
   36 C4    2pz     0.0001    0.0000    0.0000   -0.0002    0.0000   -0.0336   -0.0256    0.1136   -0.0801    0.4810
   37 H5    1s      0.0000    0.0000    0.0000   -0.0004   -0.0003    0.1213   -0.0339    0.1510   -0.0123   -0.4410
   38 H6    1s     -0.0000   -0.0000    0.0000   -0.0001    0.0004    0.1194   -0.0453    0.1568   -0.3502    0.2467
   39 H7    1s      0.0000   -0.0000    0.0000   -0.0003   -0.0001    0.1233   -0.0356    0.1382    0.3859    0.1834
 
 
      Orbital           21        22        23        24        25        26        27        28        29        30
      Energy       -0.2593   -0.2125   -0.1630   -0.1301   -0.0923    0.0000    0.0000    0.0000    0.0000    0.0000
      Occ. No.      2.0000    2.0000    2.0000    2.0000    2.0000    0.9964    0.9964    0.9966    0.0036    0.0042
 
    1 FE1   1s     -0.0011    0.0024    0.0000   -0.0002   -0.0002   -0.0001    0.0005   -0.0000   -0.0012   -0.0017
    2 FE1   2s     -0.0082    0.0176    0.0003   -0.0011   -0.0014   -0.0008    0.0033   -0.0002   -0.0088   -0.0118
    3 FE1   3s     -0.0424    0.0875    0.0026   -0.0055   -0.0069   -0.0039    0.0160   -0.0006   -0.0403   -0.0533
    4 FE1   4s      0.1987   -0.1578   -0.0980   -0.0122   -0.0119    0.0163   -0.0348    0.0355   -0.0230   -0.0890
    5 FE1   5s     -0.0775    0.1292    0.0357    0.0034   -0.0082   -0.0086    0.0301   -0.0127    0.1005    0.1705
    6 FE1   2pz    -0.0002   -0.0019    0.0035    0.0008    0.0001    0.0001   -0.0005   -0.0010   -0.0004    0.0019
    7 FE1   3pz    -0.0048   -0.0369    0.0677    0.0153    0.0021    0.0018   -0.0090   -0.0236   -0.0131    0.0353
    8 FE1   4pz     0.0874    0.1182   -0.2275   -0.0821   -0.0449   -0.0021    0.0397    0.0795   -0.0521    0.0703
    9 FE1   5pz     0.0068    0.0021   -0.0009   -0.0056   -0.0056    0.0005   -0.0003   -0.0036   -0.0016   -0.0261
   10 FE1   3d2-    0.0891    0.0279   -0.0704   -0.0538    0.1442   -0.6185   -0.2419   -0.7127   -0.1304    0.0206
   11 FE1   4d2-    0.0210    0.0024   -0.0020   -0.0149    0.0365    0.0839    0.0341    0.0898   -0.8490    0.2224
   12 FE1   3d0     0.0197   -0.1434    0.0633   -0.0881   -0.0615   -0.2665    0.9294   -0.0967    0.0433    0.1034
   13 FE1   4d0     0.0094   -0.0387    0.0188   -0.0240   -0.0175    0.0360   -0.1155    0.0035    0.3451    1.0140
   14 FE1   3d2+    0.0312   -0.0056   -0.1213    0.1593   -0.0859    0.6952    0.1450   -0.6600   -0.0993    0.0174
   15 FE1   4d2+    0.0124   -0.0046   -0.0190    0.0428   -0.0254   -0.0986   -0.0153    0.0872   -0.6293    0.2092
   16 S2    1s     -0.0007    0.0034   -0.0025   -0.0008   -0.0003   -0.0002    0.0006   -0.0003   -0.0143    0.0019
   17 S2    2s     -0.0052    0.0249   -0.0182   -0.0061   -0.0025   -0.0012    0.0046   -0.0024   -0.1095    0.0156
   18 S2    3s     -0.1683    0.3832   -0.1627   -0.0510   -0.0192   -0.0101    0.0313   -0.0928   -0.4465    0.1076
   19 S2    2px     0.0026   -0.0060    0.0048   -0.0037    0.0063   -0.0001   -0.0006    0.0004    0.0052    0.0037
   20 S2    3px    -0.1051    0.1952   -0.2526    0.3933   -0.7366   -0.2585   -0.0145    0.0191   -0.0249    0.0942
   21 S2    2py    -0.0031    0.0150   -0.0073   -0.0035    0.0021   -0.0004    0.0011   -0.0010   -0.0164   -0.0087
   22 S2    3py     0.0962   -0.5410    0.3204    0.2144   -0.3439   -0.0640   -0.1776   -0.0371   -0.0601   -0.2307
   23 S3    1s      0.0017    0.0015    0.0034    0.0010   -0.0004    0.0001    0.0002    0.0000    0.0084   -0.0042
   24 S3    2s      0.0135    0.0115    0.0258    0.0078   -0.0033    0.0008    0.0013    0.0004    0.0646   -0.0316
   25 S3    3s      0.1868    0.2296    0.2678    0.0642   -0.0567    0.0099    0.0280    0.0495    0.2876   -0.1062
   26 S3    2px     0.0093   -0.0018   -0.0072   -0.0046   -0.0019   -0.0002    0.0004    0.0002   -0.0055    0.0117
   27 S3    3px    -0.2341    0.1738    0.4088    0.5824    0.3151   -0.0668    0.0875   -0.0192    0.0730    0.1582
   28 S3    2py    -0.0141   -0.0087   -0.0075    0.0000    0.0018    0.0000   -0.0005   -0.0008   -0.0038    0.0043
   29 S3    3py     0.3140    0.3205    0.4903   -0.1641   -0.2443    0.0531   -0.0175   -0.0728   -0.0408    0.0166
   30 S3    2pz     0.0155    0.0016   -0.0032    0.0031    0.0005    0.0003   -0.0005   -0.0004   -0.0231   -0.0049
   31 S3    3pz    -0.4080    0.0003    0.3457   -0.5076   -0.3388    0.0685   -0.1195   -0.1727   -0.3615   -0.1418
   32 C4    1s     -0.0055   -0.0022    0.0026    0.0016    0.0041    0.0001   -0.0003   -0.0008    0.0029   -0.0021
   33 C4    2s     -0.1396   -0.0642    0.0002    0.0202    0.0764   -0.0084   -0.0152   -0.0206   -0.0184   -0.0313
   34 C4    2px    -0.1557    0.0288    0.0794    0.1488    0.0862   -0.0143   -0.0012   -0.0071   -0.0296   -0.0300
   35 C4    2py     0.3965    0.1882    0.1366    0.0107   -0.0750    0.0150    0.0277    0.0147    0.0094    0.0494
   36 C4    2pz     0.3150    0.0753   -0.0427    0.1053   -0.0109    0.0031    0.0276    0.0305    0.0494    0.0275
   37 H5    1s      0.0798    0.0493    0.1115   -0.1478   -0.1009    0.0180   -0.0181   -0.0283   -0.0929    0.0100
   38 H6    1s      0.2085   -0.0457   -0.1631   -0.0122   -0.0177    0.0034    0.0115    0.0326    0.0336   -0.0148
   39 H7    1s      0.0517    0.0892    0.1290    0.1853    0.0751   -0.0113    0.0149   -0.0028   -0.0373   -0.0926
 
 
      Orbital           31
      Energy        0.0000
      Occ. No.      0.0034
 
    1 FE1   1s     -0.0001
    2 FE1   2s     -0.0010
    3 FE1   3s     -0.0047
    4 FE1   4s     -0.0269
    5 FE1   5s     -0.0094
    6 FE1   2pz    -0.0000
    7 FE1   3pz    -0.0013
    8 FE1   4pz    -0.0270
    9 FE1   5pz    -0.0103
   10 FE1   3d2-    0.0956
   11 FE1   4d2-    0.6547
   12 FE1   3d0     0.0059
   13 FE1   4d0     0.0371
   14 FE1   3d2+   -0.1308
   15 FE1   4d2+   -0.8628
   16 S2    1s     -0.0011
   17 S2    2s     -0.0087
   18 S2    3s     -0.0345
   19 S2    2px     0.0226
   20 S2    3px     0.5034
   21 S2    2py     0.0078
   22 S2    3py     0.2072
   23 S3    1s      0.0001
   24 S3    2s      0.0002
   25 S3    3s     -0.0149
   26 S3    2px     0.0066
   27 S3    3px     0.1298
   28 S3    2py    -0.0131
   29 S3    3py    -0.2252
   30 S3    2pz    -0.0017
   31 S3    3pz    -0.0726
   32 C4    1s     -0.0013
   33 C4    2s      0.0237
   34 C4    2px     0.0291
   35 C4    2py    -0.0342
   36 C4    2pz    -0.0467
   37 H5    1s      0.0532
   38 H6    1s     -0.0030
   39 H7    1s      0.0046
 
 
 
      Molecular orbitals for symmetry species 2: bg 
 
 
      Orbital            1         2         3         4         5         6         7         8         9        10
      Energy      -91.9317  -27.4711  -27.4710  -11.0929   -8.7086   -6.3400   -6.3375   -6.3355   -6.2848   -2.7107
      Occ. No.      2.0000    2.0000    2.0000    2.0000    2.0000    2.0000    2.0000    2.0000    2.0000    2.0000
 
    1 FE1   2px    -0.0000   -0.6465   -0.7629    0.0000   -0.0000    0.0000    0.0000   -0.0000   -0.0000    0.0001
    2 FE1   3px    -0.0000   -0.0000   -0.0000    0.0001   -0.0000   -0.0000    0.0000   -0.0000   -0.0000   -0.6994
    3 FE1   4px    -0.0000   -0.0000   -0.0000    0.0006   -0.0002   -0.0002    0.0004   -0.0003   -0.0001    0.0081
    4 FE1   5px    -0.0000   -0.0001   -0.0001    0.0002   -0.0000   -0.0000    0.0002   -0.0001   -0.0001   -0.0061
    5 FE1   2py    -0.0000    0.7629   -0.6465   -0.0000    0.0000    0.0000    0.0000    0.0000    0.0000   -0.0001
    6 FE1   3py    -0.0000    0.0000   -0.0000   -0.0000    0.0000    0.0000    0.0000    0.0000    0.0000    0.7136
    7 FE1   4py    -0.0000    0.0000   -0.0000   -0.0002    0.0002    0.0003    0.0001    0.0001    0.0003   -0.0083
    8 FE1   5py    -0.0000    0.0001   -0.0001   -0.0001    0.0001    0.0001    0.0001    0.0000    0.0001    0.0062
    9 FE1   3d1-    0.0000    0.0001    0.0000    0.0000   -0.0000   -0.0000   -0.0000    0.0000    0.0000    0.0076
   10 FE1   4d1-    0.0000   -0.0000    0.0000   -0.0000   -0.0001   -0.0000    0.0001    0.0000   -0.0000   -0.0013
   11 FE1   3d1+    0.0000   -0.0000    0.0001    0.0001   -0.0001   -0.0001    0.0000   -0.0000   -0.0000   -0.0017
   12 FE1   4d1+    0.0000    0.0000   -0.0000    0.0002   -0.0003   -0.0002    0.0001   -0.0000    0.0000   -0.0001
   13 S2    2pz    -0.0000    0.0000   -0.0000   -0.0000    0.0000    0.0000    0.0000    0.0000    1.0000    0.0005
   14 S2    3pz    -0.0000   -0.0000   -0.0000   -0.0001    0.0001    0.0001   -0.0000    0.0001    0.0073   -0.0071
   15 S3    1s      1.0000    0.0000    0.0000    0.0000    0.0000   -0.0000    0.0001   -0.0000   -0.0000   -0.0000
   16 S3    2s      0.0000    0.0000    0.0000    0.0001    0.9999   -0.0077    0.0116   -0.0005   -0.0000    0.0001
   17 S3    3s     -0.0004    0.0000    0.0000    0.0004    0.0075    0.0009   -0.0014    0.0001   -0.0000   -0.0018
   18 S3    2px    -0.0000    0.0000   -0.0000    0.0000   -0.0040    0.4028    0.5836   -0.7050    0.0000   -0.0001
   19 S3    3px    -0.0000    0.0000    0.0000    0.0002   -0.0003    0.0029    0.0038   -0.0042    0.0000    0.0012
   20 S3    2py    -0.0001   -0.0000   -0.0000   -0.0000   -0.0133   -0.6076    0.7465    0.2709   -0.0000   -0.0001
   21 S3    3py     0.0000   -0.0000    0.0000   -0.0002   -0.0010   -0.0051    0.0052    0.0016   -0.0000    0.0013
   22 S3    2pz     0.0000   -0.0000   -0.0000    0.0000    0.0019    0.6845    0.3193    0.6554   -0.0000   -0.0001
   23 S3    3pz    -0.0000   -0.0000    0.0000    0.0004    0.0001    0.0052    0.0020    0.0038   -0.0000    0.0012
   24 C4    1s      0.0000    0.0000   -0.0000    1.0002    0.0001    0.0002   -0.0001   -0.0000    0.0000   -0.0001
   25 C4    2s     -0.0000   -0.0000   -0.0000    0.0011    0.0002    0.0002   -0.0002   -0.0000    0.0000   -0.0003
   26 C4    2px    -0.0000   -0.0000   -0.0000   -0.0001    0.0000   -0.0000    0.0000   -0.0001   -0.0000    0.0002
   27 C4    2py     0.0000    0.0000    0.0000    0.0001   -0.0001   -0.0001    0.0002    0.0000   -0.0000    0.0003
   28 C4    2pz     0.0000    0.0000    0.0000    0.0001   -0.0001   -0.0000    0.0000   -0.0001    0.0000    0.0000
   29 H5    1s      0.0000   -0.0000   -0.0000   -0.0008   -0.0001    0.0000   -0.0000   -0.0000   -0.0000   -0.0001
   30 H6    1s      0.0000   -0.0000   -0.0000   -0.0009   -0.0000    0.0001   -0.0000   -0.0000   -0.0000    0.0004
   31 H7    1s     -0.0000   -0.0000   -0.0000   -0.0007    0.0000    0.0000   -0.0000    0.0001   -0.0000   -0.0001
 
 
      Orbital           11        12        13        14        15        16        17        18        19        20
      Energy       -2.7105   -0.7929   -0.6071   -0.3845   -0.3685   -0.2519   -0.1655   -0.1550   -0.1081    0.0000
      Occ. No.      2.0000    2.0000    2.0000    2.0000    2.0000    2.0000    2.0000    2.0000    2.0000    0.9967
 
    1 FE1   2px    -0.0001    0.0008   -0.0010    0.0007   -0.0001    0.0009    0.0020    0.0015   -0.0003   -0.0002
    2 FE1   3px     0.7136    0.0202   -0.0261    0.0150   -0.0015    0.0183    0.0403    0.0294   -0.0062   -0.0028
    3 FE1   4px    -0.0085    0.0096    0.0696   -0.0107   -0.0105   -0.1173   -0.2122   -0.0625    0.0719   -0.0036
    4 FE1   5px     0.0063    0.0092    0.0027    0.0036   -0.0031   -0.0054   -0.0057    0.0049    0.0070   -0.0011
    5 FE1   2py    -0.0001    0.0001   -0.0006   -0.0001    0.0001    0.0012   -0.0018    0.0018    0.0001   -0.0010
    6 FE1   3py     0.6993    0.0027   -0.0150   -0.0024    0.0018    0.0267   -0.0367    0.0356    0.0016   -0.0239
    7 FE1   4py    -0.0083   -0.0330    0.0231   -0.0107   -0.0039   -0.0876    0.2589   -0.1792   -0.0050    0.1191
    8 FE1   5py     0.0061   -0.0065   -0.0029   -0.0037    0.0003   -0.0002    0.0115   -0.0029   -0.0015   -0.0016
    9 FE1   3d1-    0.0003   -0.0106    0.0325   -0.0070   -0.0016   -0.0689   -0.2537    0.0362   -0.1162    0.5798
   10 FE1   4d1-    0.0002   -0.0050    0.0082   -0.0028   -0.0007   -0.0158   -0.0449    0.0129   -0.0239   -0.0725
   11 FE1   3d1+   -0.0056   -0.0225    0.0596   -0.0280   -0.0078   -0.0984   -0.0078   -0.2368   -0.0099   -0.7696
   12 FE1   4d1+    0.0014    0.0006    0.0169   -0.0037   -0.0020   -0.0233    0.0018   -0.0352   -0.0027    0.0926
   13 S2    2pz     0.0002   -0.0008   -0.0001    0.0004   -0.0004   -0.0017    0.0180   -0.0082    0.0001    0.0003
   14 S2    3pz    -0.0025   -0.0071   -0.0022   -0.0178    0.0111    0.0404   -0.6780    0.3416   -0.0920   -0.1996
   15 S3    1s      0.0000    0.0025   -0.0010    0.0001    0.0001   -0.0021    0.0010    0.0032   -0.0004   -0.0004
   16 S3    2s     -0.0002    0.0269   -0.0155    0.0006    0.0005   -0.0166    0.0077    0.0245   -0.0032   -0.0031
   17 S3    3s      0.0051   -0.4376    0.7478    0.0226   -0.0125   -0.2614    0.0784    0.2696    0.0018   -0.0022
   18 S3    2px     0.0003    0.0018    0.0026   -0.0035   -0.0053   -0.0080   -0.0014   -0.0050   -0.0033   -0.0002
   19 S3    3px    -0.0041    0.0149   -0.0494    0.0582    0.0889    0.2482    0.2183    0.4859    0.7424   -0.0442
   20 S3    2py     0.0001   -0.0118    0.0012   -0.0044    0.0004    0.0163   -0.0042   -0.0069    0.0011   -0.0009
   21 S3    3py    -0.0020    0.1005   -0.0191    0.0923   -0.0060   -0.3735    0.2138    0.5573   -0.2082   -0.1242
   22 S3    2pz     0.0003    0.0067    0.0025   -0.0055    0.0034   -0.0158   -0.0033   -0.0030    0.0040   -0.0005
   23 S3    3pz    -0.0044   -0.0314   -0.0328    0.1016   -0.0646    0.3811    0.2158    0.3301   -0.6089   -0.1178
   24 C4    1s      0.0000   -0.0395   -0.0171    0.0008    0.0003   -0.0050   -0.0032   -0.0002    0.0027   -0.0004
   25 C4    2s      0.0001    0.5643    0.3317    0.0127    0.0139   -0.1274   -0.0409    0.0538    0.0536   -0.0286
   26 C4    2px     0.0002    0.0131   -0.0297    0.3068    0.5157   -0.0848   -0.0319   -0.0546   -0.0213   -0.0113
   27 C4    2py     0.0001   -0.0368    0.1902    0.2972   -0.1164    0.4531   -0.0508   -0.1600    0.0315    0.0264
   28 C4    2pz    -0.0002   -0.0304    0.1190   -0.3948    0.3034    0.3083    0.0833   -0.0167   -0.0806    0.0272
   29 H5    1s      0.0001    0.1218    0.1414    0.2574   -0.3666    0.1022   -0.0884   -0.0913    0.1684    0.0146
   30 H6    1s     -0.0003    0.1252    0.1462   -0.4477   -0.0589    0.1486    0.1094    0.1259   -0.0436    0.0008
   31 H7    1s      0.0001    0.1237    0.1516    0.1758    0.4190    0.1069   -0.0467   -0.1113   -0.1363   -0.0032
 
 
      Orbital           21        22        23
      Energy        0.0000    0.0000    0.0000
      Occ. No.      0.9967    0.0036    0.0032
 
    1 FE1   2px     0.0011   -0.0011   -0.0000
    2 FE1   3px     0.0246   -0.0220    0.0004
    3 FE1   4px    -0.1088   -0.1036   -0.1613
    4 FE1   5px     0.0026    0.0027   -0.0785
    5 FE1   2py     0.0000    0.0026   -0.0003
    6 FE1   3py    -0.0004    0.0520   -0.0050
    7 FE1   4py     0.0146    0.2665   -0.1195
    8 FE1   5py     0.0008    0.0012   -0.0461
    9 FE1   3d1-    0.7615   -0.1958    0.1304
   10 FE1   4d1-   -0.1001   -1.0992    0.6304
   11 FE1   3d1+    0.5852    0.1063    0.2338
   12 FE1   4d1+   -0.0761    0.6035    1.1615
   13 S2    2pz     0.0002    0.0351   -0.0035
   14 S2    3pz    -0.1220    0.3027   -0.0441
   15 S3    1s     -0.0003    0.0000   -0.0140
   16 S3    2s     -0.0023    0.0004   -0.1076
   17 S3    3s     -0.0840    0.0343   -0.4344
   18 S3    2px     0.0016   -0.0038    0.0270
   19 S3    3px     0.2779   -0.1018    0.3348
   20 S3    2py     0.0011    0.0087    0.0108
   21 S3    3py     0.0618    0.1502    0.0848
   22 S3    2pz    -0.0003    0.0028    0.0160
   23 S3    3pz     0.0860    0.0786    0.1274
   24 C4    1s     -0.0012    0.0047    0.0089
   25 C4    2s     -0.0218    0.0852    0.0657
   26 C4    2px    -0.0113    0.0602    0.0302
   27 C4    2py     0.0208   -0.0318   -0.0292
   28 C4    2pz     0.0304   -0.0940   -0.0361
   29 H5    1s     -0.0042    0.0363    0.0269
   30 H6    1s      0.0416   -0.0153    0.0410
   31 H7    1s     -0.0354    0.0987   -0.0418
 
 
 
      Molecular orbitals for symmetry species 3: au 
 
 
      Orbital            1         2         3         4         5         6         7         8         9        10
      Energy     -263.6084  -91.9317  -32.4048  -27.4707  -11.0929   -8.7086   -6.3400   -6.3375   -6.3355   -6.2848
      Occ. No.      2.0000    2.0000    2.0000    2.0000    2.0000    2.0000    2.0000    2.0000    2.0000    2.0000
 
    1 FE1   1s      1.0000   -0.0000   -0.0000   -0.0000   -0.0000    0.0000    0.0000    0.0000   -0.0000   -0.0000
    2 FE1   2s      0.0000   -0.0000    1.0000    0.0000   -0.0001    0.0000    0.0000    0.0000   -0.0000   -0.0000
    3 FE1   3s     -0.0000   -0.0000    0.0011   -0.0000   -0.0003    0.0002    0.0001    0.0001   -0.0000   -0.0001
    4 FE1   4s      0.0000   -0.0001   -0.0001   -0.0003   -0.0017    0.0008    0.0002    0.0005   -0.0002   -0.0004
    5 FE1   5s     -0.0000   -0.0001    0.0001   -0.0001   -0.0010    0.0004    0.0001    0.0003   -0.0000   -0.0002
    6 FE1   2pz     0.0000   -0.0000   -0.0000    1.0000   -0.0000   -0.0000   -0.0000    0.0000    0.0000    0.0000
    7 FE1   3pz    -0.0000    0.0000    0.0000    0.0001   -0.0000   -0.0001   -0.0001    0.0000    0.0000    0.0000
    8 FE1   4pz    -0.0000    0.0000    0.0000    0.0002   -0.0003   -0.0009   -0.0006    0.0003    0.0003    0.0001
    9 FE1   5pz    -0.0000    0.0000   -0.0000    0.0002   -0.0001   -0.0002   -0.0002    0.0001    0.0001    0.0000
   10 FE1   3d2-   -0.0000    0.0000    0.0000   -0.0001   -0.0000   -0.0000    0.0000   -0.0000    0.0000   -0.0000
   11 FE1   4d2-   -0.0000    0.0000    0.0000    0.0000    0.0000   -0.0001    0.0001    0.0001   -0.0000    0.0001
   12 FE1   3d0     0.0000   -0.0000    0.0000   -0.0000   -0.0000    0.0000   -0.0000    0.0000    0.0000    0.0000
   13 FE1   4d0     0.0000   -0.0000   -0.0000   -0.0000   -0.0001   -0.0000   -0.0001    0.0000    0.0001    0.0001
   14 FE1   3d2+   -0.0000    0.0000    0.0000   -0.0001   -0.0000   -0.0001   -0.0001    0.0000   -0.0000   -0.0000
   15 FE1   4d2+   -0.0000    0.0000    0.0000    0.0000   -0.0001   -0.0002   -0.0002    0.0001   -0.0001    0.0000
   16 S2    2pz    -0.0000    0.0000    0.0000    0.0000    0.0000   -0.0000   -0.0000    0.0000   -0.0000    1.0000
   17 S2    3pz    -0.0000    0.0000    0.0000   -0.0000    0.0001   -0.0002   -0.0001   -0.0000    0.0000    0.0073
   18 S3    1s      0.0000    1.0000   -0.0000   -0.0000   -0.0000    0.0000   -0.0000    0.0001   -0.0000    0.0000
   19 S3    2s      0.0000    0.0000   -0.0000   -0.0000   -0.0000    0.9999   -0.0077    0.0116   -0.0005    0.0000
   20 S3    3s      0.0000   -0.0004   -0.0000   -0.0000   -0.0002    0.0075    0.0010   -0.0015    0.0000    0.0001
   21 S3    2px     0.0000   -0.0000   -0.0000    0.0000   -0.0000   -0.0040    0.4028    0.5835   -0.7051   -0.0000
   22 S3    3px     0.0000    0.0000   -0.0000    0.0000   -0.0002   -0.0004    0.0029    0.0039   -0.0041    0.0000
   23 S3    2py     0.0000   -0.0001   -0.0000    0.0000    0.0000   -0.0133   -0.6077    0.7465    0.2706    0.0000
   24 S3    3py     0.0000    0.0000   -0.0000    0.0000    0.0004   -0.0011   -0.0051    0.0052    0.0016    0.0000
   25 S3    2pz     0.0000    0.0000   -0.0000    0.0000   -0.0000    0.0019    0.6843    0.3196    0.6554   -0.0000
   26 S3    3pz     0.0000   -0.0000   -0.0000   -0.0000   -0.0003    0.0001    0.0053    0.0019    0.0038   -0.0000
   27 C4    1s      0.0000    0.0000   -0.0000    0.0000    1.0002   -0.0001   -0.0002    0.0001   -0.0000    0.0000
   28 C4    2s      0.0000    0.0000   -0.0000   -0.0000    0.0011   -0.0003   -0.0002    0.0002   -0.0000    0.0000
   29 C4    2px     0.0000    0.0000   -0.0000   -0.0000   -0.0000   -0.0001    0.0000   -0.0001    0.0001    0.0000
   30 C4    2py    -0.0000   -0.0000    0.0000    0.0000    0.0001    0.0002    0.0001   -0.0001   -0.0000   -0.0000
   31 C4    2pz    -0.0000   -0.0000    0.0000    0.0000    0.0000    0.0001    0.0000   -0.0000    0.0001   -0.0000
   32 H5    1s      0.0000    0.0000   -0.0000    0.0000   -0.0006   -0.0001   -0.0001   -0.0001    0.0000    0.0000
   33 H6    1s     -0.0000   -0.0000   -0.0000   -0.0000   -0.0008    0.0000   -0.0001   -0.0000   -0.0000    0.0000
   34 H7    1s      0.0000   -0.0000   -0.0000   -0.0000   -0.0006    0.0000   -0.0001   -0.0001    0.0000    0.0001
 
 
      Orbital           11        12        13        14        15        16        17        18        19        20
      Energy       -4.2093   -2.7123   -0.8030   -0.6096   -0.3914   -0.3806   -0.2628   -0.2011   -0.1646   -0.1188
      Occ. No.      2.0000    2.0000    2.0000    2.0000    2.0000    2.0000    2.0000    2.0000    2.0000    2.0000
 
    1 FE1   1s      0.0000    0.0000   -0.0010    0.0006   -0.0008    0.0005   -0.0015    0.0017    0.0018    0.0001
    2 FE1   2s     -0.0012    0.0001   -0.0074    0.0048   -0.0060    0.0034   -0.0110    0.0124    0.0133    0.0006
    3 FE1   3s      0.9997    0.0002   -0.0411    0.0294   -0.0309    0.0178   -0.0562    0.0615    0.0649    0.0026
    4 FE1   4s     -0.0028    0.0029   -0.0974   -0.1243   -0.0246    0.0046    0.2162   -0.2815    0.2558    0.0207
    5 FE1   5s      0.0062    0.0012   -0.0892   -0.0125   -0.0461    0.0256   -0.1069    0.1479    0.1102   -0.0079
    6 FE1   2pz    -0.0000   -0.0001   -0.0006    0.0009   -0.0006    0.0001   -0.0004    0.0004    0.0014    0.0002
    7 FE1   3pz     0.0001    0.9991   -0.0176    0.0233   -0.0137    0.0013   -0.0087    0.0074    0.0283    0.0036
    8 FE1   4pz     0.0002   -0.0133    0.0083   -0.0596    0.0113   -0.0098    0.0726    0.1114   -0.3080   -0.0971
    9 FE1   5pz    -0.0001    0.0080   -0.0053   -0.0024   -0.0030   -0.0017    0.0052    0.0096   -0.0182   -0.0107
   10 FE1   3d2-    0.0001   -0.0051    0.0127   -0.0324    0.0028    0.0002    0.0399    0.1257   -0.1783    0.0293
   11 FE1   4d2-   -0.0001    0.0008    0.0075   -0.0090    0.0002   -0.0017    0.0086    0.0302   -0.0305    0.0040
   12 FE1   3d0    -0.0000    0.0000    0.0017   -0.0067    0.0118    0.0091   -0.0222    0.0354   -0.0848   -0.1011
   13 FE1   4d0    -0.0001    0.0008   -0.0049   -0.0044    0.0020   -0.0006    0.0002    0.0014   -0.0133   -0.0264
   14 FE1   3d2+    0.0001   -0.0040    0.0088   -0.0258    0.0022   -0.0093    0.0043    0.0837   -0.1750    0.1160
   15 FE1   4d2+    0.0000    0.0008   -0.0024   -0.0084    0.0014   -0.0007    0.0054    0.0200   -0.0325    0.0283
   16 S2    2pz    -0.0002    0.0004   -0.0000    0.0010   -0.0008    0.0011   -0.0065    0.0145   -0.0111   -0.0007
   17 S2    3pz     0.0019   -0.0047    0.0119   -0.0030    0.0252   -0.0311    0.1857   -0.5431    0.4626   -0.0382
   18 S3    1s      0.0000    0.0000   -0.0018    0.0014    0.0001   -0.0001    0.0016    0.0028    0.0018    0.0006
   19 S3    2s     -0.0000   -0.0001   -0.0219    0.0178    0.0013   -0.0008    0.0122    0.0214    0.0133    0.0046
   20 S3    3s      0.0013    0.0043    0.4695   -0.7087   -0.0912    0.0101    0.1574    0.3315    0.1719    0.0193
   21 S3    2px     0.0001    0.0003   -0.0008   -0.0039    0.0089    0.0021    0.0093   -0.0021   -0.0075   -0.0044
   22 S3    3px    -0.0016   -0.0040   -0.0184    0.0532   -0.1732   -0.0436   -0.2338    0.1725    0.4670    0.6265
   23 S3    2py     0.0000    0.0001    0.0121   -0.0012    0.0014   -0.0034   -0.0136   -0.0105   -0.0064    0.0014
   24 S3    3py    -0.0010   -0.0022   -0.0905    0.0190   -0.0344    0.0647    0.2972    0.4069    0.4176   -0.3013
   25 S3    2pz     0.0001    0.0002   -0.0066   -0.0031    0.0024   -0.0069    0.0156    0.0016   -0.0029    0.0032
   26 S3    3pz    -0.0015   -0.0027    0.0251    0.0414   -0.0369    0.1264   -0.3946   -0.0052    0.3056   -0.6430
   27 C4    1s      0.0000   -0.0001   -0.0379   -0.0176    0.0005   -0.0002   -0.0053   -0.0019    0.0010    0.0032
   28 C4    2s      0.0000   -0.0003    0.5521    0.3660    0.0039   -0.0121   -0.1400   -0.0638   -0.0117    0.0541
   29 C4    2px     0.0001   -0.0000    0.0197   -0.0449    0.5147    0.2028   -0.1557    0.0165    0.1004    0.1639
   30 C4    2py     0.0001    0.0003   -0.0383    0.1805    0.2108   -0.2731    0.3664    0.2761    0.0757   -0.0319
   31 C4    2pz    -0.0001   -0.0001   -0.0347    0.1160   -0.1005    0.4716    0.3311    0.0608   -0.0164    0.0907
   32 H5    1s     -0.0007   -0.0003    0.1286    0.1564    0.0116   -0.4412    0.0570    0.1088    0.0476   -0.1845
   33 H6    1s     -0.0003    0.0004    0.1234    0.1640   -0.3574    0.2242    0.2256   -0.0703   -0.1493   -0.0055
   34 H7    1s     -0.0007   -0.0003    0.1323    0.1449    0.3797    0.2017    0.0494    0.1050    0.1237    0.1888
 
 
      Orbital           21        22        23        24        25        26
      Energy        0.0000    0.0000    0.0000    0.0000    0.0000    0.0000
      Occ. No.      0.9965    0.9966    0.9965    0.0033    0.0029    0.0037
 
    1 FE1   1s      0.0001   -0.0003    0.0005    0.0039    0.0063   -0.0005
    2 FE1   2s      0.0010   -0.0021    0.0033    0.0282    0.0455   -0.0036
    3 FE1   3s      0.0054   -0.0102    0.0175    0.1368    0.2220   -0.0172
    4 FE1   4s      0.0422   -0.0846    0.1424    0.5291    1.0489   -0.1079
    5 FE1   5s      0.0071   -0.0172    0.0115    0.0552    0.2141   -0.0597
    6 FE1   2pz     0.0000   -0.0006    0.0001   -0.0049   -0.0048    0.0003
    7 FE1   3pz    -0.0004   -0.0154    0.0024   -0.0968   -0.0919    0.0051
    8 FE1   4pz    -0.0164    0.0941   -0.1321   -0.4805   -0.5992    0.0097
    9 FE1   5pz    -0.0009   -0.0007   -0.0071   -0.0533   -0.1332   -0.0007
   10 FE1   3d2-   -0.5976   -0.6050    0.4689   -0.1406    0.0931    0.0990
   11 FE1   4d2-    0.0652    0.0858   -0.0692   -0.7888    0.4494    0.7276
   12 FE1   3d0     0.2804    0.4124    0.8629    0.1315    0.2644   -0.0062
   13 FE1   4d0    -0.0284   -0.0418   -0.0985    0.6305    1.1901   -0.0423
   14 FE1   3d2+    0.7419   -0.6234    0.0525   -0.1292    0.0723   -0.1119
   15 FE1   4d2+   -0.0893    0.0921   -0.0171   -0.7211    0.3533   -0.8101
   16 S2    2pz    -0.0004    0.0001   -0.0018   -0.0293    0.0175    0.0004
   17 S2    3pz     0.0453   -0.1981    0.2035   -0.3375    0.4036    0.0019
   18 S3    1s      0.0002    0.0007   -0.0003    0.0096   -0.0071   -0.0005
   19 S3    2s      0.0013    0.0058   -0.0024    0.0741   -0.0542   -0.0038
   20 S3    3s      0.0163    0.0853   -0.0479    0.3299   -0.2393   -0.0375
   21 S3    2px    -0.0000    0.0001    0.0003   -0.0049    0.0132    0.0068
   22 S3    3px    -0.0099    0.0179    0.1477    0.0795    0.2139    0.1200
   23 S3    2py    -0.0000   -0.0011    0.0003   -0.0051    0.0051   -0.0124
   24 S3    3py     0.0637   -0.0823    0.0199   -0.0603    0.0452   -0.2150
   25 S3    2pz     0.0003   -0.0010    0.0003   -0.0257   -0.0001    0.0007
   26 S3    3pz     0.0408   -0.2260    0.0190   -0.3888   -0.0269   -0.0379
   27 C4    1s     -0.0007   -0.0002    0.0007    0.0029   -0.0029   -0.0001
   28 C4    2s     -0.0244   -0.0164    0.0107   -0.0131   -0.0266    0.0423
   29 C4    2px    -0.0127   -0.0065    0.0160   -0.0312   -0.0148    0.0332
   30 C4    2py     0.0295    0.0330   -0.0116    0.0190    0.0353   -0.0421
   31 C4    2pz     0.0226    0.0335   -0.0021    0.0396    0.0156   -0.0625
   32 H5    1s      0.0112   -0.0277   -0.0080   -0.0636    0.0191    0.0633
   33 H6    1s      0.0071    0.0327   -0.0182    0.0348   -0.0353   -0.0062
   34 H7    1s     -0.0008    0.0105    0.0219   -0.0377   -0.0967    0.0163
 
 
 
      Molecular orbitals for symmetry species 4: bu 
 
 
      Orbital            1         2         3         4         5         6         7         8         9        10
      Energy      -91.9317  -91.8728  -27.4711  -27.4710  -11.0929   -8.7086   -8.6546   -6.3400   -6.3375   -6.3355
      Occ. No.      2.0000    2.0000    2.0000    2.0000    2.0000    2.0000    2.0000    2.0000    2.0000    2.0000
 
    1 FE1   2px    -0.0000   -0.0000   -0.6478   -0.7618    0.0000   -0.0000   -0.0000    0.0000    0.0000   -0.0000
    2 FE1   3px    -0.0000   -0.0000   -0.0000   -0.0000    0.0001   -0.0000   -0.0000   -0.0000    0.0000   -0.0000
    3 FE1   4px    -0.0000   -0.0000    0.0000    0.0000    0.0005   -0.0002   -0.0001   -0.0002    0.0003   -0.0002
    4 FE1   5px    -0.0000   -0.0000   -0.0001   -0.0001    0.0002   -0.0000    0.0000   -0.0000    0.0001   -0.0001
    5 FE1   2py    -0.0000    0.0000    0.7618   -0.6478   -0.0000    0.0000    0.0000    0.0000    0.0000    0.0000
    6 FE1   3py    -0.0000    0.0000    0.0000   -0.0000   -0.0000    0.0000    0.0001    0.0000    0.0000    0.0000
    7 FE1   4py    -0.0000    0.0000   -0.0000    0.0000   -0.0001    0.0001    0.0003    0.0002    0.0001    0.0000
    8 FE1   5py    -0.0000    0.0000    0.0001   -0.0001   -0.0001    0.0001   -0.0001    0.0001    0.0000    0.0000
    9 FE1   3d1-    0.0000    0.0000    0.0001   -0.0000   -0.0000   -0.0000   -0.0002   -0.0000   -0.0000    0.0000
   10 FE1   4d1-    0.0000    0.0000   -0.0000   -0.0000   -0.0000   -0.0001   -0.0005    0.0000    0.0001    0.0000
   11 FE1   3d1+    0.0000   -0.0000   -0.0000    0.0001    0.0001   -0.0001    0.0001   -0.0001    0.0000   -0.0000
   12 FE1   4d1+    0.0000   -0.0000   -0.0000   -0.0000    0.0003   -0.0003    0.0002   -0.0002    0.0002   -0.0000
   13 S2    1s     -0.0000    1.0000    0.0000   -0.0000   -0.0000    0.0000    0.0000    0.0000   -0.0000    0.0000
   14 S2    2s     -0.0000    0.0000    0.0000   -0.0000   -0.0000    0.0000    1.0000    0.0000   -0.0000    0.0000
   15 S2    3s     -0.0000   -0.0004    0.0000   -0.0000   -0.0001    0.0001    0.0079    0.0001   -0.0000    0.0000
   16 S2    2px     0.0000   -0.0000   -0.0000    0.0000   -0.0000   -0.0000   -0.0049   -0.0000   -0.0000    0.0000
   17 S2    3px     0.0000    0.0000    0.0000    0.0000   -0.0000    0.0000   -0.0004    0.0000   -0.0001    0.0000
   18 S2    2py     0.0000    0.0001    0.0000    0.0000   -0.0000   -0.0000    0.0106    0.0000   -0.0000    0.0000
   19 S2    3py     0.0000   -0.0000   -0.0001    0.0000   -0.0000   -0.0000    0.0009   -0.0000   -0.0000    0.0000
   20 S3    1s      1.0000    0.0000    0.0000    0.0000    0.0000    0.0000    0.0000   -0.0000    0.0001   -0.0000
   21 S3    2s      0.0000   -0.0000    0.0000    0.0000    0.0001    0.9999    0.0000   -0.0077    0.0116   -0.0005
   22 S3    3s     -0.0004   -0.0000   -0.0000    0.0000    0.0004    0.0075    0.0000    0.0009   -0.0014    0.0001
   23 S3    2px    -0.0000    0.0000    0.0000   -0.0000    0.0000   -0.0040   -0.0000    0.4028    0.5836   -0.7050
   24 S3    3px    -0.0000    0.0000    0.0000    0.0000    0.0002   -0.0003   -0.0000    0.0029    0.0038   -0.0042
   25 S3    2py    -0.0001   -0.0000   -0.0000   -0.0000   -0.0000   -0.0133    0.0000   -0.6075    0.7465    0.2709
   26 S3    3py     0.0000   -0.0000   -0.0000    0.0000   -0.0002   -0.0010   -0.0000   -0.0051    0.0052    0.0016
   27 S3    2pz     0.0000   -0.0000   -0.0000   -0.0000    0.0000    0.0019    0.0000    0.6845    0.3193    0.6554
   28 S3    3pz    -0.0000   -0.0000   -0.0000    0.0000    0.0004    0.0001    0.0000    0.0052    0.0020    0.0038
   29 C4    1s      0.0000   -0.0000    0.0000   -0.0000    1.0002    0.0001    0.0000    0.0002   -0.0001   -0.0000
   30 C4    2s     -0.0000   -0.0000    0.0000   -0.0000    0.0011    0.0002    0.0001    0.0002   -0.0002   -0.0000
   31 C4    2px    -0.0000   -0.0000   -0.0000   -0.0000   -0.0001    0.0000    0.0000   -0.0000    0.0000   -0.0001
   32 C4    2py     0.0000   -0.0000    0.0000    0.0000    0.0001   -0.0001    0.0000   -0.0001    0.0002    0.0000
   33 C4    2pz     0.0000    0.0000    0.0000    0.0000    0.0001   -0.0001   -0.0000   -0.0000    0.0000   -0.0001
   34 H5    1s      0.0000    0.0000   -0.0000   -0.0000   -0.0008   -0.0001   -0.0000    0.0000   -0.0000   -0.0000
   35 H6    1s      0.0000   -0.0000   -0.0000   -0.0000   -0.0009   -0.0000    0.0000    0.0001   -0.0000   -0.0000
   36 H7    1s     -0.0000   -0.0000   -0.0000    0.0000   -0.0007    0.0000    0.0000    0.0000   -0.0000    0.0001
 
 
      Orbital           11        12        13        14        15        16        17        18        19        20
      Energy       -6.2848   -6.2823   -2.7108   -2.7107   -0.7930   -0.6230   -0.6071   -0.3844   -0.3685   -0.2525
      Occ. No.      2.0000    2.0000    2.0000    2.0000    2.0000    2.0000    2.0000    2.0000    2.0000    2.0000
 
    1 FE1   2px    -0.0000   -0.0000    0.0001   -0.0001    0.0007   -0.0009   -0.0011    0.0006   -0.0000    0.0011
    2 FE1   3px    -0.0000    0.0000   -0.7169    0.6960    0.0197   -0.0221   -0.0283    0.0139   -0.0012    0.0243
    3 FE1   4px    -0.0002    0.0001    0.0079   -0.0082    0.0061    0.0418    0.0634   -0.0050   -0.0121   -0.1095
    4 FE1   5px    -0.0001    0.0000   -0.0064    0.0062    0.0085   -0.0012    0.0004    0.0042   -0.0036   -0.0007
    5 FE1   2py     0.0000   -0.0000   -0.0001   -0.0001    0.0001    0.0021   -0.0004    0.0001    0.0000    0.0010
    6 FE1   3py     0.0001    0.0000    0.6957    0.7168    0.0031    0.0540   -0.0116    0.0006   -0.0000    0.0215
    7 FE1   4py     0.0005    0.0000   -0.0074   -0.0081   -0.0285   -0.1014    0.0129   -0.0165    0.0029   -0.0540
    8 FE1   5py     0.0001    0.0000    0.0063    0.0064   -0.0058    0.0032   -0.0037   -0.0032    0.0005    0.0022
    9 FE1   3d1-   -0.0001   -0.0000    0.0075    0.0005   -0.0114    0.1155    0.0415    0.0029   -0.0085   -0.1016
   10 FE1   4d1-   -0.0003   -0.0000   -0.0012   -0.0002   -0.0057    0.0272    0.0107   -0.0008   -0.0026   -0.0233
   11 FE1   3d1+    0.0000   -0.0000   -0.0015   -0.0057   -0.0221   -0.0554    0.0581   -0.0332   -0.0076   -0.0842
   12 FE1   4d1+    0.0001   -0.0000    0.0002    0.0007    0.0021   -0.0131    0.0177   -0.0047   -0.0021   -0.0226
   13 S2    1s     -0.0001    0.0000   -0.0000   -0.0000   -0.0004   -0.0023   -0.0003   -0.0002    0.0001    0.0001
   14 S2    2s     -0.0115    0.0000    0.0004    0.0001   -0.0028   -0.0282   -0.0029   -0.0015    0.0007    0.0008
   15 S2    3s      0.0018    0.0000   -0.0075   -0.0030   -0.0148    0.8803    0.0527    0.0097   -0.0098    0.0004
   16 S2    2px    -0.4173    0.9087   -0.0002   -0.0002    0.0002    0.0026   -0.0003    0.0006   -0.0004    0.0013
   17 S2    3px    -0.0031    0.0058    0.0025    0.0020    0.0026   -0.0519   -0.0108   -0.0044    0.0119    0.0158
   18 S2    2py     0.9087    0.4173    0.0006    0.0002   -0.0003   -0.0057   -0.0009   -0.0004    0.0002    0.0018
   19 S2    3py     0.0067    0.0027   -0.0068   -0.0022   -0.0020    0.1179    0.0035    0.0113    0.0018   -0.0549
   20 S3    1s     -0.0000   -0.0000   -0.0000    0.0000    0.0025    0.0001   -0.0010    0.0001    0.0001   -0.0023
   21 S3    2s     -0.0000   -0.0000    0.0000   -0.0001    0.0269    0.0014   -0.0148    0.0003    0.0005   -0.0180
   22 S3    3s     -0.0000   -0.0000   -0.0020    0.0052   -0.4378   -0.0476    0.7489    0.0217   -0.0129   -0.2655
   23 S3    2px     0.0000    0.0000   -0.0001    0.0003    0.0018   -0.0005    0.0025   -0.0035   -0.0053   -0.0077
   24 S3    3px     0.0000    0.0000    0.0013   -0.0041    0.0149   -0.0015   -0.0506    0.0587    0.0895    0.2484
   25 S3    2py     0.0000    0.0000   -0.0001    0.0001   -0.0118    0.0006    0.0012   -0.0043    0.0003    0.0163
   26 S3    3py    -0.0001    0.0000    0.0013   -0.0020    0.1006    0.0068   -0.0193    0.0929   -0.0065   -0.3709
   27 S3    2pz    -0.0000   -0.0000   -0.0001    0.0003    0.0067   -0.0001    0.0024   -0.0055    0.0034   -0.0155
   28 S3    3pz     0.0000    0.0000    0.0013   -0.0043   -0.0312    0.0038   -0.0345    0.1028   -0.0657    0.3855
   29 C4    1s      0.0000    0.0000   -0.0001    0.0000   -0.0396    0.0008   -0.0172    0.0008    0.0002   -0.0050
   30 C4    2s      0.0000    0.0000   -0.0002    0.0001    0.5641   -0.0132    0.3314    0.0132    0.0134   -0.1280
   31 C4    2px    -0.0000   -0.0000    0.0002    0.0002    0.0130    0.0024   -0.0295    0.3097    0.5136   -0.0840
   32 C4    2py    -0.0000    0.0000    0.0003    0.0001   -0.0367   -0.0141    0.1894    0.2972   -0.1187    0.4512
   33 C4    2pz     0.0000   -0.0000   -0.0000   -0.0002   -0.0303   -0.0051    0.1190   -0.3932    0.3059    0.3116
   34 H5    1s     -0.0001   -0.0000    0.0000    0.0002    0.1220   -0.0078    0.1413    0.2560   -0.3688    0.0973
   35 H6    1s     -0.0000    0.0000    0.0003   -0.0003    0.1252   -0.0054    0.1460   -0.4479   -0.0560    0.1507
   36 H7    1s     -0.0000   -0.0000   -0.0002    0.0001    0.1236   -0.0046    0.1516    0.1788    0.4173    0.1075
 
 
      Orbital           21        22        23        24        25        26        27        28
      Energy       -0.1668   -0.1575   -0.1397   -0.0909    0.0000    0.0000    0.0000    0.0000
      Occ. No.      2.0000    2.0000    2.0000    2.0000    0.9964    0.9965    0.0033    0.0036
 
    1 FE1   2px     0.0011    0.0002    0.0026   -0.0003    0.0000   -0.0011   -0.0007   -0.0023
    2 FE1   3px     0.0212    0.0051    0.0520   -0.0061    0.0012   -0.0256   -0.0166   -0.0490
    3 FE1   4px    -0.0046   -0.0561   -0.2005    0.0348    0.0183    0.0489    0.0227   -0.2713
    4 FE1   5px     0.0111   -0.0056   -0.0012    0.0014    0.0024   -0.0107    0.0356   -0.0297
    5 FE1   2py     0.0003    0.0024   -0.0004   -0.0010    0.0015    0.0007    0.0008   -0.0013
    6 FE1   3py     0.0048    0.0456   -0.0067   -0.0205    0.0336    0.0151    0.0194   -0.0268
    7 FE1   4py     0.0055   -0.0911   -0.0109    0.0946   -0.0795   -0.0473   -0.0887   -0.0882
    8 FE1   5py     0.0039    0.0122   -0.0050    0.0023    0.0117    0.0038   -0.0654    0.0079
    9 FE1   3d1-   -0.1559    0.2709   -0.0770   -0.0167   -0.3970   -0.8435   -0.1836   -0.0513
   10 FE1   4d1-   -0.0247    0.0384    0.0017    0.0022    0.0566    0.1309   -1.0998   -0.3142
   11 FE1   3d1+   -0.2835   -0.1481    0.0853   -0.0500    0.8451   -0.3926    0.0539   -0.1602
   12 FE1   4d1+   -0.0499   -0.0181    0.0202   -0.0167   -0.1264    0.0650    0.3328   -1.0720
   13 S2    1s      0.0002   -0.0023    0.0016    0.0011   -0.0002   -0.0001    0.0195   -0.0021
   14 S2    2s      0.0017   -0.0168    0.0121    0.0086   -0.0011   -0.0006    0.1497   -0.0164
   15 S2    3s      0.0258   -0.2431    0.1471    0.0803    0.0659    0.0621    0.6013   -0.0601
   16 S2    2px    -0.0052    0.0067    0.0055   -0.0049   -0.0006   -0.0005   -0.0179   -0.0119
   17 S2    3px     0.4448   -0.4385   -0.3098    0.4790    0.0455   -0.3088   -0.2361   -0.3377
   18 S2    2py    -0.0014   -0.0080    0.0079   -0.0000    0.0014    0.0012    0.0339   -0.0105
   19 S2    3py     0.1284    0.6603   -0.5623    0.0508    0.3691    0.1615    0.3832   -0.2090
   20 S3    1s      0.0015    0.0011    0.0029   -0.0011   -0.0003    0.0009    0.0036    0.0166
   21 S3    2s      0.0111    0.0087    0.0222   -0.0084   -0.0023    0.0072    0.0278    0.1275
   22 S3    3s      0.1624    0.0738    0.2120   -0.0880   -0.0517    0.1108    0.1511    0.5280
   23 S3    2px    -0.0047   -0.0007   -0.0008    0.0036    0.0009   -0.0016   -0.0107   -0.0267
   24 S3    3px     0.5883   -0.0454    0.0003   -0.6982    0.1158   -0.2531   -0.1975   -0.3197
   25 S3    2py    -0.0055   -0.0017   -0.0058    0.0002    0.0013   -0.0013    0.0080   -0.0131
   26 S3    3py     0.4273    0.2111    0.4016    0.1095    0.1341   -0.0531    0.1630   -0.1258
   27 S3    2pz    -0.0009   -0.0035   -0.0042   -0.0015    0.0011   -0.0005   -0.0014   -0.0214
   28 S3    3pz     0.2194    0.3090    0.3580    0.5103    0.1566   -0.1032    0.0463   -0.2140
   29 C4    1s     -0.0005   -0.0019   -0.0016   -0.0023   -0.0005    0.0006    0.0012   -0.0108
   30 C4    2s      0.0330   -0.0233    0.0095   -0.0563    0.0100    0.0189    0.0637   -0.0889
   31 C4    2px    -0.0676   -0.0165   -0.0059    0.0155    0.0048    0.0173    0.0651   -0.0377
   32 C4    2py    -0.1000   -0.0493   -0.1368    0.0134   -0.0139   -0.0358   -0.0306    0.0304
   33 C4    2pz    -0.0024    0.0640    0.0220    0.0682   -0.0094   -0.0287   -0.0936    0.0635
   34 H5    1s     -0.0490   -0.0897   -0.1349   -0.1255   -0.0158    0.0017    0.0455   -0.0528
   35 H6    1s      0.1223    0.0794    0.0838    0.0237    0.0169   -0.0403   -0.0188   -0.0496
   36 H7    1s     -0.1263    0.0081   -0.0161    0.1298   -0.0068    0.0306    0.1216    0.0184
--
 
      Von Neumann Entropy (Root  1) =  5.14817
 

      Mulliken population Analysis for root number:  1
      -----------------------------------------------
 
 
++    Molecular charges:
      ------------------
 
      Mulliken charges per centre and basis function type
      ---------------------------------------------------
 
             FE1     S2      S3      C4      H5      H6      H7    
      1s     2.0000  2.0000  2.0000  2.0004  0.8663  0.8881  0.8630
      2s     2.0000  2.0004  2.0003  1.2833  0.0000  0.0000  0.0000
      2px    2.0000  2.0001  2.0001  1.1108  0.0000  0.0000  0.0000
      2pz    2.0000  2.0002  2.0001  1.0869  0.0000  0.0000  0.0000
      2py    2.0000  2.0001  2.0002  1.0610  0.0000  0.0000  0.0000
      3s     1.9986  1.8386  1.8292  0.0000  0.0000  0.0000  0.0000
      3px    1.9981  1.7332  1.7410  0.0000  0.0000  0.0000  0.0000
      3pz    1.9977  1.4652  1.5204  0.0000  0.0000  0.0000  0.0000
      3py    1.9980  1.6146  1.2834  0.0000  0.0000  0.0000  0.0000
      4s     0.4086  0.0000  0.0000  0.0000  0.0000  0.0000  0.0000
      3d2+   1.0622  0.0000  0.0000  0.0000  0.0000  0.0000  0.0000
      3d1+   1.1229  0.0000  0.0000  0.0000  0.0000  0.0000  0.0000
      3d0    1.0351  0.0000  0.0000  0.0000  0.0000  0.0000  0.0000
      3d1-   1.1306  0.0000  0.0000  0.0000  0.0000  0.0000  0.0000
      3d2-   1.0547  0.0000  0.0000  0.0000  0.0000  0.0000  0.0000
      4px    0.3285  0.0000  0.0000  0.0000  0.0000  0.0000  0.0000
      4pz    0.3417  0.0000  0.0000  0.0000  0.0000  0.0000  0.0000
      4py    0.3358  0.0000  0.0000  0.0000  0.0000  0.0000  0.0000
      5s     0.1631  0.0000  0.0000  0.0000  0.0000  0.0000  0.0000
      4d2+   0.0642  0.0000  0.0000  0.0000  0.0000  0.0000  0.0000
      4d1+   0.0674  0.0000  0.0000  0.0000  0.0000  0.0000  0.0000
      4d0    0.0508  0.0000  0.0000  0.0000  0.0000  0.0000  0.0000
      4d1-   0.0698  0.0000  0.0000  0.0000  0.0000  0.0000  0.0000
      4d2-   0.0587  0.0000  0.0000  0.0000  0.0000  0.0000  0.0000
      5px   -0.0001  0.0000  0.0000  0.0000  0.0000  0.0000  0.0000
      5pz   -0.0086  0.0000  0.0000  0.0000  0.0000  0.0000  0.0000
      5py    0.0010  0.0000  0.0000  0.0000  0.0000  0.0000  0.0000
      Total 25.2785 16.6525 16.3746  6.5424  0.8663  0.8881  0.8630
 
      N-E    0.7215 -0.6525 -0.3746 -0.5424  0.1337  0.1119  0.1370
 
      Total electronic charge=  186.000000
 
      Total            charge=   -2.000000
--
 
 

      Expectation values of various properties for root number:  1
      -----------------------------------------------------------
 
 
++    Molecular properties:
      ---------------------
 
      Charge (e):
                      =   -2.0000
      Dipole Moment (Debye):
      Origin of the operator (Ang)=    0.0000    0.0000    0.0000
                   X=  0.0000E+00               Y=  0.0000E+00               Z=  0.0000E+00           Total=  0.0000E+00
      Center of Charge (Ang)
                     X=    0.00000000               Y=    0.00000000               Z=    0.00000000
      Quadrupole Moment (Debye*Ang):
      Origin of the operator (Ang)=    0.0000    0.0000    0.0000
                  XX= -1.9103E+02              XY= -9.7561E+00              XZ=  0.0000E+00              YY= -1.8512E+02
                  YZ=  0.0000E+00              ZZ= -2.1907E+02
      In traceless form (Debye*Ang)
                  XX=  1.1066E+01              XY= -1.4634E+01              XZ=  0.0000E+00              YY=  1.9927E+01
                  YZ=  0.0000E+00              ZZ= -3.0993E+01
--
 

      Mulliken spin population Analysis for root number:  1
      ---------------------------------------------------
 
 
++    Molecular charges:
      ------------------
 
      Mulliken spin population per centre and basis function type
      ---------------------------------------------------
 
             FE1     S2      S3      C4      H5      H6      H7    
      1s     0.0000  0.0000  0.0000 -0.0000  0.0004  0.0007  0.0004
      2s    -0.0000 -0.0000 -0.0000  0.0003  0.0000  0.0000  0.0000
      2px    0.0000 -0.0000 -0.0000  0.0000  0.0000  0.0000  0.0000
      2pz    0.0000  0.0000 -0.0000  0.0007  0.0000  0.0000  0.0000
      2py    0.0000 -0.0000 -0.0000  0.0014  0.0000  0.0000  0.0000
      3s    -0.0000  0.0052  0.0041  0.0000  0.0000  0.0000  0.0000
      3px    0.0001  0.0647  0.0339  0.0000  0.0000  0.0000  0.0000
      3pz    0.0001  0.0592  0.0282  0.0000  0.0000  0.0000  0.0000
      3py    0.0002  0.0747  0.0085  0.0000  0.0000  0.0000  0.0000
      4s     0.0042  0.0000  0.0000  0.0000  0.0000  0.0000  0.0000
      3d2+   0.9103  0.0000  0.0000  0.0000  0.0000  0.0000  0.0000
      3d1+   0.8480  0.0000  0.0000  0.0000  0.0000  0.0000  0.0000
      3d0    0.9396  0.0000  0.0000  0.0000  0.0000  0.0000  0.0000
      3d1-   0.8398  0.0000  0.0000  0.0000  0.0000  0.0000  0.0000
      3d2-   0.9172  0.0000  0.0000  0.0000  0.0000  0.0000  0.0000
      4px    0.0115  0.0000  0.0000  0.0000  0.0000  0.0000  0.0000
      4pz    0.0143  0.0000  0.0000  0.0000  0.0000  0.0000  0.0000
      4py    0.0198  0.0000  0.0000  0.0000  0.0000  0.0000  0.0000
      5s     0.0012  0.0000  0.0000  0.0000  0.0000  0.0000  0.0000
      4d2+   0.0257  0.0000  0.0000  0.0000  0.0000  0.0000  0.0000
      4d1+   0.0302  0.0000  0.0000  0.0000  0.0000  0.0000  0.0000
      4d0    0.0216  0.0000  0.0000  0.0000  0.0000  0.0000  0.0000
      4d1-   0.0305  0.0000  0.0000  0.0000  0.0000  0.0000  0.0000
      4d2-   0.0238  0.0000  0.0000  0.0000  0.0000  0.0000  0.0000
      5px    0.0004  0.0000  0.0000  0.0000  0.0000  0.0000  0.0000
      5pz   -0.0002  0.0000  0.0000  0.0000  0.0000  0.0000  0.0000
      5py    0.0004  0.0000  0.0000  0.0000  0.0000  0.0000  0.0000
      Total  4.6389  0.2038  0.0746  0.0025  0.0004  0.0007  0.0004
 
      Total electronic spin=   10.000000
--
 
 

      LoProp population Analysis for root number:  1
      -----------------------------------------------
 
 
++    LoProp Analysis:
      ----------------
 
 
 
++    Static properties:
      ------------------
 
 
      LoProp Charges per center
 

                   FE1      S2       S3       C4       H5       H6       H7    
      Nuclear     26.0000  16.0000  16.0000   6.0000   1.0000   1.0000   1.0000
      Electronic -24.3750 -17.2242 -16.5970  -6.3756  -0.9020  -0.9272  -0.8986
 
      Total        1.6250  -1.2242  -0.5970  -0.3756   0.0980   0.0728   0.1014
--
 
 
      Natural Bond Order Analysis for root number:  1
 
++    Natural Bond Order analysis
      ---------------------------
      Based on LoProp computed density
      -------------------------------------------------------------------------------------
      Atom A:Gen.  Atom B:Gen.  Bond Order | Atom A:Gen.  Atom B:Gen.  Bond Order
        S3    :E     C4    :xy      1.000  |   C4    :z     H5    :z       1.000
        S3    :xy    C4    :E       1.000  |   C4    :z     H6    :z       1.000
        S3    :xyz   C4    :z       1.000  |   FE1   :E     S2    :E       2.807
        S3    :z     C4    :xyz     1.000  |   FE1   :E     S2    :xy      2.807
        C4    :E     H5    :E       1.000  |   FE1   :z     S2    :E       2.807
        C4    :E     H6    :E       1.000  |   FE1   :z     S2    :xy      2.807
        C4    :xy    H5    :xy      1.000  |   FE1   :E     S3    :E       1.843
        C4    :xy    H6    :xy      1.000  |   FE1   :E     S3    :xy      1.843
        C4    :xyz   H5    :xyz     1.000  |   FE1   :z     S3    :xyz     1.843
        C4    :xyz   H6    :xyz     1.000  |   FE1   :z     S3    :z       0.950
        FE1   :E     FE1   :z       1.785  |
      -------------------------------------------------------------------------------------
      NBO located    104.000 core electrons.
      NBO located     19.390 lone pair electrons.
      NBO located     62.985 electrons involved in   21 bonds.
      NBO analysis, and just that ONLY, did not converge to a
      proper answer, sorry. Calculation will continue as normal.
--
 
--
 
 
  Input file to MOLDEN was generated!
 
 
  Input file to MOLDEN was generated!
 
      Average orbitals are written to the RASORB file
      Natural orbitals for root   1 are written to the RASORB.1 file
      Spin density orbitals for root   1 are written to the SPDORB.1 file
 
--- Stop Module:  rasscf at Wed Mar 28 18:37:04 2018 /rc= _NOT_CONVERGED_ ---
--- Module rasscf spent 20 seconds 
Non-zero return code - check program input/output
--- Stop Module:  auto at Wed Mar 28 18:37:04 2018 /rc= _NOT_CONVERGED_ ---
--- Module auto spent 20 seconds 
